
     Program PHONON v.6.4.1 starts on 14Oct2019 at  9:55:24 

     This program is part of the open-source Quantum ESPRESSO suite
     for quantum simulation of materials; please cite
         "P. Giannozzi et al., J. Phys.:Condens. Matter 21 395502 (2009);
         "P. Giannozzi et al., J. Phys.:Condens. Matter 29 465901 (2017);
          URL http://www.quantum-espresso.org", 
     in publications or presentations arising from this work. More details at
     http://www.quantum-espresso.org/quote

     Parallel version (MPI & OpenMP), running on     768 processor cores
     Number of MPI processes:                96
     Threads/MPI process:                     8

     MPI processes distributed on     4 nodes
     K-points division:     npool     =       4
     R & G space division:  proc/nbgrp/npool/nimage =      24

     Reading data from directory:
     ./SiO2_OR_36-2_nc.save/

     IMPORTANT: XC functional enforced from input :
     Exchange-correlation      = PBE ( 1  4  3  4 0 0)
     Any further DFT definition will be discarded
     Please, verify this is what you really want

               file O.pbe-mt.UPF: wavefunction(s)  4f renormalized
 
     Parallelization info
     --------------------
     sticks:   dense  smooth     PW     G-vecs:    dense   smooth      PW
     Min         316     316     84                12278    12278    1687
     Max         317     317     86                12280    12280    1689
     Sum        7595    7595   2029               294685   294685   40503
 

     Calculation of q =    0.0000000   0.0000000   0.0000000

     Subspace diagonalization in iterative solution of the eigenvalue problem:
     one sub-group per band group will be used
     scalapack distributed-memory algorithm (size of sub-group:  3*  3 procs)

 
     Parallelization info
     --------------------
     sticks:   dense  smooth     PW     G-vecs:    dense   smooth      PW
     Min         316     316     84                12278    12278    1687
     Max         317     317     86                12280    12280    1689
     Sum        7595    7595   2029               294685   294685   40503
 

     Title: 
     Dielectric contant and Born Charges for for SiO2 O.R. 36  atoms supercell  


     bravais-lattice index     =            8
     lattice parameter (alat)  =      18.5722  a.u.
     unit-cell volume          =    3051.0810 (a.u.)^3
     number of atoms/cell      =           36
     number of atomic types    =            2
     number of electrons       =       192.00
     number of Kohn-Sham states=           96
     kinetic-energy cutoff     =      80.0000  Ry
     charge density cutoff     =     320.0000  Ry
     Exchange-correlation      = PBE ( 1  4  3  4 0 0)

     celldm(1)=  18.572236  celldm(2)=   0.866025  celldm(3)=   0.549959
     celldm(4)=   0.000000  celldm(5)=   0.000000  celldm(6)=   0.000000

     crystal axes: (cart. coord. in units of alat)
               a(1) = (   1.000000   0.000000   0.000000 )  
               a(2) = (   0.000000   0.866025   0.000000 )  
               a(3) = (   0.000000   0.000000   0.549959 )  

     reciprocal axes: (cart. coord. in units 2 pi/alat)
               b(1) = (  1.000000  0.000000  0.000000 )  
               b(2) = (  0.000000  1.154701  0.000000 )  
               b(3) = (  0.000000  0.000000  1.818316 )  


     PseudoPot. # 1 for Si read from file:
     ./Si.pbe-rrkj.UPF
     MD5 check sum: cf7ab5690cd9a85b22c4813f7e365554
     Pseudo is Norm-conserving, Zval =  4.0
     Generated by new atomic code, or converted to UPF format
     Using radial grid of  883 points,  3 beta functions with: 
                l(1) =   0
                l(2) =   0
                l(3) =   1

     PseudoPot. # 2 for O  read from file:
     ./O.pbe-mt.UPF
     MD5 check sum: 5a75cacf90515961bdd44329e9c96b05
     Pseudo is Norm-conserving, Zval =  6.0
     Generated using Fritz-Haber code, data in Abinit PP tables
     Using radial grid of  473 points,  3 beta functions with: 
                l(1) =   0
                l(2) =   1
                l(3) =   3

     atomic species   valence    mass     pseudopotential
        Si             4.00    47.86700     Si( 1.00)
        O              6.00    15.99940     O ( 1.00)

      2 Sym. Ops. (no inversion) found



   Cartesian axes

     site n.     atom                  positions (alat units)
         1           Si  tau(   1) = (   0.2311121   0.0000000   0.0000000  )
         2           Si  tau(   2) = (   0.7311121   0.0000000   0.0000000  )
         3           Si  tau(   3) = (   0.4811121   0.4330127   0.0000000  )
         4           Si  tau(   4) = (   0.9811121   0.4330127   0.0000000  )
         5           O   tau(   5) = (   0.1338450   0.7446650   0.0590732  )
         6           O   tau(   6) = (   0.6338450   0.7446650   0.0590732  )
         7           O   tau(   7) = (   0.3838450   0.3116523   0.0590732  )
         8           O   tau(   8) = (   0.8838450   0.3116523   0.0590731  )
         9           O   tau(   9) = (   0.3279876   0.0552698   0.1242343  )
        10           O   tau(  10) = (   0.8279876   0.0552698   0.1242343  )
        11           O   tau(  11) = (   0.0779875   0.4882825   0.1242343  )
        12           O   tau(  12) = (   0.5779875   0.4882824   0.1242343  )
        13           Si  tau(  13) = (   0.3844407   0.2001676   0.1833369  )
        14           Si  tau(  14) = (   0.8844407   0.2001676   0.1833369  )
        15           Si  tau(  15) = (   0.1344407   0.6331804   0.1833369  )
        16           Si  tau(  16) = (   0.6344407   0.6331804   0.1833368  )
        17           O   tau(  17) = (   0.0381707   0.1764718   0.2424120  )
        18           O   tau(  18) = (   0.5381707   0.1764718   0.2424120  )
        19           O   tau(  19) = (   0.2881707   0.6094844   0.2424120  )
        20           O   tau(  20) = (   0.7881707   0.6094844   0.2424120  )
        21           O   tau(  21) = (   0.0381707   0.6895536   0.3075473  )
        22           O   tau(  22) = (   0.5381707   0.6895536   0.3075473  )
        23           O   tau(  23) = (   0.2881707   0.2565410   0.3075473  )
        24           O   tau(  24) = (   0.7881707   0.2565410   0.3075473  )
        25           Si  tau(  25) = (   0.3844407   0.6658578   0.3666224  )
        26           Si  tau(  26) = (   0.8844407   0.6658578   0.3666224  )
        27           Si  tau(  27) = (   0.1344407   0.2328450   0.3666224  )
        28           Si  tau(  28) = (   0.6344407   0.2328450   0.3666225  )
        29           O   tau(  29) = (   0.3279876   0.8107556   0.4257250  )
        30           O   tau(  30) = (   0.8279876   0.8107556   0.4257250  )
        31           O   tau(  31) = (   0.0779875   0.3777429   0.4257250  )
        32           O   tau(  32) = (   0.5779875   0.3777430   0.4257250  )
        33           O   tau(  33) = (   0.1338450   0.1213604   0.4908861  )
        34           O   tau(  34) = (   0.6338450   0.1213604   0.4908861  )
        35           O   tau(  35) = (   0.3838450   0.5543731   0.4908861  )
        36           O   tau(  36) = (   0.8838450   0.5543731   0.4908862  )

     number of k points=     8
                       cart. coord. in units 2pi/alat
        k(    1) = (   0.2500000   0.1443376   0.2272895), wk =   0.2500000
        k(    2) = (   0.2500000   0.1443376   0.6818686), wk =   0.2500000
        k(    3) = (   0.2500000   0.4330127   0.2272895), wk =   0.2500000
        k(    4) = (   0.2500000   0.4330127   0.6818686), wk =   0.2500000
        k(    5) = (  -0.2500000   0.1443376  -0.2272895), wk =   0.2500000
        k(    6) = (  -0.2500000   0.1443376  -0.6818686), wk =   0.2500000
        k(    7) = (  -0.2500000   0.4330127  -0.2272895), wk =   0.2500000
        k(    8) = (  -0.2500000   0.4330127  -0.6818686), wk =   0.2500000

     Dense  grid:   294685 G-vectors     FFT dimensions: ( 108,  96,  60)

     Estimated max dynamical RAM per process >      42.05 MB

     Estimated total dynamical RAM >       3.94 GB

     The potential is recalculated from file :
     ./_ph0/SiO2_OR_36-2_nc.save/charge-density

     Starting wfcs are  432 atomic wfcs

     Band Structure Calculation
     Davidson diagonalization with overlap

     ethr =  5.21E-12,  avg # of iterations = 12.0

     total cpu time spent up to now is       29.7 secs

     End of band structure calculation

          k = 0.2500 0.1443 0.2273 ( 36875 PWs)   bands (ev):

   -16.4584 -16.2129 -16.0377 -15.9115 -15.6727 -15.5620 -15.4150 -15.3160
   -15.0715 -15.0484 -15.0124 -14.8580 -14.5220 -14.5212 -14.5121 -14.4903
   -14.4875 -14.4793 -14.4685 -14.4565 -14.4487 -14.4482 -14.4327 -14.4120
    -5.6673  -5.4965  -5.4758  -5.4649  -4.8352  -4.6523  -4.4654  -4.1882
    -3.6711  -3.3282  -3.1216  -2.8083  -2.6460  -2.6391  -2.6212  -2.5781
    -2.5089  -2.4463  -2.4363  -2.4135  -2.2759  -2.0340  -1.8776  -1.8152
    -0.4408  -0.3890  -0.3765  -0.3756  -0.2239  -0.2043  -0.1324  -0.1221
    -0.0994  -0.0249   0.0564   0.0996   0.3297   0.3667   0.3821   0.5521
     0.6295   0.6823   0.7002   0.8314   0.9230   1.0065   1.0716   1.1469
     1.1816   1.2568   1.2847   1.2949   1.4092   1.4138   1.4330   1.4542
     1.6258   1.6287   1.6535   1.6736   1.6801   1.8775   2.0001   2.0892
     2.2296   2.2362   2.2644   2.3073   2.4806   2.5389   2.5428   2.5433

          k = 0.2500 0.1443 0.6819 ( 36851 PWs)   bands (ev):

   -16.2297 -16.0567 -15.9757 -15.9335 -15.8158 -15.6782 -15.5567 -15.4959
   -15.1965 -15.1067 -14.8984 -14.5689 -14.5412 -14.5396 -14.5165 -14.5121
   -14.4956 -14.4798 -14.4751 -14.4724 -14.4577 -14.4495 -14.4323 -14.4299
    -6.1430  -5.6433  -5.3358  -5.1419  -4.4946  -4.4075  -4.2010  -3.9255
    -3.7187  -3.5848  -3.4965  -3.2231  -2.7260  -2.6503  -2.5848  -2.5444
    -2.4847  -2.3333  -2.2261  -2.2238  -2.1538  -2.1323  -2.0807  -1.9864
    -0.5552  -0.5203  -0.4917  -0.3709  -0.3139  -0.2676  -0.2322   0.0075
     0.0557   0.0862   0.1653   0.2159   0.3637   0.4929   0.5000   0.6358
     0.7282   0.7391   0.7550   0.7821   0.8602   1.0167   1.0324   1.1398
     1.1819   1.3254   1.3353   1.3876   1.4251   1.4640   1.5347   1.5681
     1.5772   1.6511   1.6542   1.6991   1.7583   1.8458   1.9773   1.9875
     2.0303   2.0771   2.1901   2.2629   2.3427   2.4067   2.4360   2.5055

          k = 0.2500 0.4330 0.2273 ( 36906 PWs)   bands (ev):

   -16.3709 -16.2129 -16.1508 -16.0346 -15.5735 -15.4638 -15.4147 -15.3391
   -15.0344 -15.0301 -15.0125 -14.9184 -14.5261 -14.5169 -14.5124 -14.4918
   -14.4857 -14.4805 -14.4797 -14.4647 -14.4521 -14.4395 -14.4326 -14.4196
    -5.5800  -5.4952  -5.4735  -5.4656  -4.7927  -4.6527  -4.6212  -4.4621
    -3.3255  -3.1229  -3.1169  -2.9102  -2.6576  -2.6423  -2.6388  -2.6129
    -2.4727  -2.4553  -2.4515  -2.4366  -2.2306  -2.0336  -1.9562  -1.8944
    -0.4529  -0.4429  -0.4402  -0.4264  -0.1838  -0.1154  -0.1095  -0.0992
     0.0081   0.0170   0.0575   0.1260   0.2428   0.3294   0.4282   0.4597
     0.6189   0.6813   0.7553   0.7985   0.9785   0.9866   1.0711   1.0985
     1.2072   1.2309   1.2709   1.2848   1.4329   1.4490   1.4510   1.4970
     1.5965   1.6289   1.6520   1.7148   1.7412   1.8769   1.9334   1.9439
     2.2298   2.2637   2.2996   2.3052   2.5043   2.5157   2.5436   2.5518

          k = 0.2500 0.4330 0.6819 ( 36864 PWs)   bands (ev):

   -16.1610 -16.0567 -16.0274 -15.9713 -15.7724 -15.6781 -15.6269 -15.5719
   -15.0895 -14.9909 -14.8988 -14.6820 -14.5461 -14.5294 -14.5162 -14.4944
   -14.4939 -14.4830 -14.4799 -14.4588 -14.4555 -14.4497 -14.4430 -14.4389
    -5.9572  -5.6427  -5.5335  -5.3366  -4.4009  -4.2994  -4.2012  -4.0210
    -3.5893  -3.4969  -3.4838  -3.3513  -2.6527  -2.6033  -2.5839  -2.5312
    -2.5109  -2.3336  -2.2639  -2.2099  -2.1726  -2.0910  -2.0811  -2.0310
    -0.5341  -0.4909  -0.4908  -0.4139  -0.3693  -0.3605  -0.2665  -0.0762
     0.1416   0.1799   0.2157   0.2590   0.3582   0.3637   0.4392   0.5130
     0.7131   0.7235   0.7271   0.7939   0.9687   1.1070   1.1402   1.1681
     1.2475   1.3350   1.3351   1.3920   1.4170   1.5077   1.5210   1.5342
     1.5602   1.6474   1.6501   1.6841   1.7367   1.7581   1.9117   1.9424
     2.0323   2.1315   2.1899   2.2943   2.3828   2.4364   2.4566   2.4801

          k =-0.2500 0.1443-0.2273 ( 36875 PWs)   bands (ev):

   -16.4582 -16.2111 -16.0346 -15.9115 -15.6727 -15.5731 -15.4295 -15.3190
   -15.0715 -15.0346 -14.9906 -14.8522 -14.5259 -14.5209 -14.5167 -14.4906
   -14.4857 -14.4797 -14.4682 -14.4565 -14.4526 -14.4492 -14.4371 -14.4144
    -5.6670  -5.4960  -5.4759  -5.4647  -4.8347  -4.6488  -4.4618  -4.1880
    -3.6713  -3.3270  -3.1169  -2.8041  -2.6486  -2.6252  -2.6127  -2.5782
    -2.4958  -2.4555  -2.4478  -2.4135  -2.2952  -2.0603  -1.8940  -1.8151
    -0.4930  -0.4523  -0.4001  -0.3755  -0.2042  -0.1830  -0.1223  -0.1047
    -0.0912   0.0080   0.0882   0.0990   0.4001   0.4436   0.4599   0.5524
     0.6184   0.6288   0.6328   0.8316   0.9859   1.0440   1.0978   1.1000
     1.1470   1.1910   1.2237   1.2812   1.4140   1.4279   1.4318   1.4517
     1.5694   1.6534   1.6690   1.7122   1.7151   1.8314   1.9439   2.0893
     2.2297   2.2986   2.3301   2.3310   2.4591   2.5011   2.5158   2.5387

          k =-0.2500 0.1443-0.6819 ( 36851 PWs)   bands (ev):

   -16.2290 -16.0520 -15.9711 -15.9335 -15.8173 -15.6895 -15.5716 -15.4959
   -15.1965 -15.0900 -14.8810 -14.5611 -14.5455 -14.5410 -14.5238 -14.5123
   -14.4943 -14.4821 -14.4751 -14.4686 -14.4594 -14.4510 -14.4461 -14.4270
    -6.1428  -5.6427  -5.3360  -5.1420  -4.4943  -4.4007  -4.1927  -3.9237
    -3.7188  -3.5900  -3.5032  -3.2242  -2.7297  -2.6425  -2.5675  -2.5309
    -2.4848  -2.3301  -2.2260  -2.2099  -2.1727  -2.1538  -2.1196  -1.9958
    -0.5552  -0.5334  -0.5080  -0.3599  -0.3182  -0.2560  -0.2321   0.0074
     0.0429   0.0913   0.1797   0.2167   0.4091   0.5129   0.5233   0.6361
     0.7628   0.7640   0.7817   0.7933   0.8602   0.9689   1.0202   1.0805
     1.1315   1.3232   1.3407   1.3915   1.4235   1.4642   1.5108   1.5211
     1.5681   1.6252   1.6839   1.6992   1.8564   1.9422   1.9772   1.9908
     2.0306   2.0315   2.2028   2.2625   2.3733   2.3828   2.3861   2.4725

          k =-0.2500 0.4330-0.2273 ( 36906 PWs)   bands (ev):

   -16.3709 -16.2111 -16.1468 -16.0377 -15.5624 -15.4881 -15.4292 -15.3391
   -15.0484 -14.9946 -14.9907 -14.9184 -14.5246 -14.5216 -14.5165 -14.4924
   -14.4879 -14.4818 -14.4802 -14.4644 -14.4483 -14.4462 -14.4372 -14.4194
    -5.5798  -5.4950  -5.4727  -5.4660  -4.7930  -4.6488  -4.6149  -4.4653
    -3.3270  -3.1183  -3.1098  -2.9101  -2.6422  -2.6251  -2.6215  -2.6116
    -2.5229  -2.4515  -2.4481  -2.4460  -2.2307  -2.0598  -1.9938  -1.8778
    -0.5156  -0.4923  -0.4430  -0.3892  -0.2249  -0.1178  -0.1095  -0.0907
    -0.0250   0.0995   0.1104   0.1263   0.3665   0.4283   0.4428   0.4436
     0.6328   0.6350   0.7006   0.7982   0.9235   1.0317   1.0985   1.1110
     1.1824   1.1907   1.2077   1.2712   1.4326   1.4491   1.4540   1.4894
     1.5958   1.6691   1.6798   1.7288   1.7404   1.8206   1.8315   2.0004
     2.2376   2.3054   2.3305   2.3664   2.4710   2.5008   2.5048   2.5421

          k =-0.2500 0.4330-0.6819 ( 36864 PWs)   bands (ev):

   -16.1610 -16.0519 -16.0185 -15.9757 -15.7724 -15.6894 -15.6506 -15.5570
   -15.1062 -14.9599 -14.8814 -14.6819 -14.5404 -14.5400 -14.5232 -14.4956
   -14.4942 -14.4854 -14.4821 -14.4572 -14.4557 -14.4515 -14.4463 -14.4384
    -5.9571  -5.6423  -5.5327  -5.3366  -4.4071  -4.2860  -4.1923  -4.0215
    -3.5845  -3.5040  -3.4947  -3.3510  -2.6522  -2.5716  -2.5670  -2.5451
    -2.5114  -2.3301  -2.2524  -2.2235  -2.1658  -2.1322  -2.1201  -2.0310
    -0.5254  -0.5207  -0.5069  -0.4140  -0.3718  -0.3375  -0.2552  -0.0762
     0.1416   0.1654   0.2167   0.2539   0.4085   0.4398   0.4470   0.4930
     0.7129   0.7556   0.7619   0.7701   1.0319   1.0703   1.0809   1.1070
     1.2479   1.2926   1.3223   1.3879   1.4170   1.5070   1.5106   1.5108
     1.5777   1.6251   1.6500   1.6546   1.8468   1.8566   1.9093   1.9113
     2.0773   2.1057   2.2019   2.2943   2.3863   2.4063   2.4209   2.4571

     highest occupied level (ev):     2.5518

     Writing output data file SiO2_OR_36-2_nc.save/

     Dielectric contant and Born Charges for for SiO2 O.R. 36  atoms supercell  

     bravais-lattice index     =            8
     lattice parameter (alat)  =      18.5722  a.u.
     unit-cell volume          =    3051.0810 (a.u.)^3
     number of atoms/cell      =           36
     number of atomic types    =            2
     kinetic-energy cut-off    =      80.0000  Ry
     charge density cut-off    =     320.0000  Ry
     convergence threshold     =      1.0E-14
     beta                      =       0.7000
     number of iterations used =            4
     Exchange-correlation      = PBE ( 1  4  3  4 0 0)


     celldm(1)=   18.57224  celldm(2)=    0.86603  celldm(3)=    0.54996
     celldm(4)=    0.00000  celldm(5)=    0.00000  celldm(6)=    0.00000

     crystal axes: (cart. coord. in units of alat)
               a(1) = (  1.0000  0.0000  0.0000 )  
               a(2) = (  0.0000  0.8660  0.0000 )  
               a(3) = (  0.0000  0.0000  0.5500 )  

     reciprocal axes: (cart. coord. in units 2 pi/alat)
               b(1) = (  1.0000  0.0000  0.0000 )  
               b(2) = (  0.0000  1.1547  0.0000 )  
               b(3) = (  0.0000  0.0000  1.8183 )  


     Atoms inside the unit cell: 

     Cartesian axes

     site n.  atom      mass           positions (alat units)
        1     Si  47.8670   tau(    1) = (    0.23111    0.00000    0.00000  )
        2     Si  47.8670   tau(    2) = (    0.73111    0.00000    0.00000  )
        3     Si  47.8670   tau(    3) = (    0.48111    0.43301    0.00000  )
        4     Si  47.8670   tau(    4) = (    0.98111    0.43301    0.00000  )
        5     O   15.9994   tau(    5) = (    0.13384    0.74466    0.05907  )
        6     O   15.9994   tau(    6) = (    0.63384    0.74466    0.05907  )
        7     O   15.9994   tau(    7) = (    0.38384    0.31165    0.05907  )
        8     O   15.9994   tau(    8) = (    0.88384    0.31165    0.05907  )
        9     O   15.9994   tau(    9) = (    0.32799    0.05527    0.12423  )
       10     O   15.9994   tau(   10) = (    0.82799    0.05527    0.12423  )
       11     O   15.9994   tau(   11) = (    0.07799    0.48828    0.12423  )
       12     O   15.9994   tau(   12) = (    0.57799    0.48828    0.12423  )
       13     Si  47.8670   tau(   13) = (    0.38444    0.20017    0.18334  )
       14     Si  47.8670   tau(   14) = (    0.88444    0.20017    0.18334  )
       15     Si  47.8670   tau(   15) = (    0.13444    0.63318    0.18334  )
       16     Si  47.8670   tau(   16) = (    0.63444    0.63318    0.18334  )
       17     O   15.9994   tau(   17) = (    0.03817    0.17647    0.24241  )
       18     O   15.9994   tau(   18) = (    0.53817    0.17647    0.24241  )
       19     O   15.9994   tau(   19) = (    0.28817    0.60948    0.24241  )
       20     O   15.9994   tau(   20) = (    0.78817    0.60948    0.24241  )
       21     O   15.9994   tau(   21) = (    0.03817    0.68955    0.30755  )
       22     O   15.9994   tau(   22) = (    0.53817    0.68955    0.30755  )
       23     O   15.9994   tau(   23) = (    0.28817    0.25654    0.30755  )
       24     O   15.9994   tau(   24) = (    0.78817    0.25654    0.30755  )
       25     Si  47.8670   tau(   25) = (    0.38444    0.66586    0.36662  )
       26     Si  47.8670   tau(   26) = (    0.88444    0.66586    0.36662  )
       27     Si  47.8670   tau(   27) = (    0.13444    0.23284    0.36662  )
       28     Si  47.8670   tau(   28) = (    0.63444    0.23284    0.36662  )
       29     O   15.9994   tau(   29) = (    0.32799    0.81076    0.42572  )
       30     O   15.9994   tau(   30) = (    0.82799    0.81076    0.42572  )
       31     O   15.9994   tau(   31) = (    0.07799    0.37774    0.42572  )
       32     O   15.9994   tau(   32) = (    0.57799    0.37774    0.42572  )
       33     O   15.9994   tau(   33) = (    0.13384    0.12136    0.49089  )
       34     O   15.9994   tau(   34) = (    0.63384    0.12136    0.49089  )
       35     O   15.9994   tau(   35) = (    0.38384    0.55437    0.49089  )
       36     O   15.9994   tau(   36) = (    0.88384    0.55437    0.49089  )

     Computing dynamical matrix for 
                    q = (   0.0000000   0.0000000   0.0000000 )
 
      2 Sym.Ops. (no q -> -q+G )


     G cutoff = 2795.8806  (  12280 G-vectors)     FFT grid: (108, 96, 60)
     number of k points=     8
                       cart. coord. in units 2pi/alat
        k(    1) = (   0.2500000   0.1443376   0.2272895), wk =   0.2500000
        k(    2) = (   0.2500000   0.1443376   0.6818686), wk =   0.2500000
        k(    3) = (   0.2500000   0.4330127   0.2272895), wk =   0.2500000
        k(    4) = (   0.2500000   0.4330127   0.6818686), wk =   0.2500000
        k(    5) = (  -0.2500000   0.1443376  -0.2272895), wk =   0.2500000
        k(    6) = (  -0.2500000   0.1443376  -0.6818686), wk =   0.2500000
        k(    7) = (  -0.2500000   0.4330127  -0.2272895), wk =   0.2500000
        k(    8) = (  -0.2500000   0.4330127  -0.6818686), wk =   0.2500000

     PseudoPot. # 1 for Si read from file:
     ./Si.pbe-rrkj.UPF
     MD5 check sum: cf7ab5690cd9a85b22c4813f7e365554
     Pseudo is Norm-conserving, Zval =  4.0
     Generated by new atomic code, or converted to UPF format
     Using radial grid of  883 points,  3 beta functions with: 
                l(1) =   0
                l(2) =   0
                l(3) =   1

     PseudoPot. # 2 for O  read from file:
     ./O.pbe-mt.UPF
     MD5 check sum: 5a75cacf90515961bdd44329e9c96b05
     Pseudo is Norm-conserving, Zval =  6.0
     Generated using Fritz-Haber code, data in Abinit PP tables
     Using radial grid of  473 points,  3 beta functions with: 
                l(1) =   0
                l(2) =   1
                l(3) =   3


     Electric field:
     Dielectric constant
     Born effective charges as d Force / d E


     Atomic displacements:
     There are 108 irreducible representations

     Representation     1      1 modes -  Not done in this run

     Representation     2      1 modes -  Not done in this run

     Representation     3      1 modes -  Not done in this run

     Representation     4      1 modes -  Not done in this run

     Representation     5      1 modes -  Not done in this run

     Representation     6      1 modes -  Not done in this run

     Representation     7      1 modes -  Not done in this run

     Representation     8      1 modes -  Not done in this run

     Representation     9      1 modes -  Not done in this run

     Representation    10      1 modes -  To be done

     Representation    11      1 modes -  Not done in this run

     Representation    12      1 modes -  Not done in this run

     Representation    13      1 modes -  Not done in this run

     Representation    14      1 modes -  Not done in this run

     Representation    15      1 modes -  Not done in this run

     Representation    16      1 modes -  Not done in this run

     Representation    17      1 modes -  Not done in this run

     Representation    18      1 modes -  Not done in this run

     Representation    19      1 modes -  Not done in this run

     Representation    20      1 modes -  Not done in this run

     Representation    21      1 modes -  Not done in this run

     Representation    22      1 modes -  Not done in this run

     Representation    23      1 modes -  Not done in this run

     Representation    24      1 modes -  Not done in this run

     Representation    25      1 modes -  Not done in this run

     Representation    26      1 modes -  Not done in this run

     Representation    27      1 modes -  Not done in this run

     Representation    28      1 modes -  Not done in this run

     Representation    29      1 modes -  Not done in this run

     Representation    30      1 modes -  Not done in this run

     Representation    31      1 modes -  Not done in this run

     Representation    32      1 modes -  Not done in this run

     Representation    33      1 modes -  Not done in this run

     Representation    34      1 modes -  Not done in this run

     Representation    35      1 modes -  Not done in this run

     Representation    36      1 modes -  Not done in this run

     Representation    37      1 modes -  Not done in this run

     Representation    38      1 modes -  Not done in this run

     Representation    39      1 modes -  Not done in this run

     Representation    40      1 modes -  Not done in this run

     Representation    41      1 modes -  Not done in this run

     Representation    42      1 modes -  Not done in this run

     Representation    43      1 modes -  Not done in this run

     Representation    44      1 modes -  Not done in this run

     Representation    45      1 modes -  Not done in this run

     Representation    46      1 modes -  Not done in this run

     Representation    47      1 modes -  Not done in this run

     Representation    48      1 modes -  Not done in this run

     Representation    49      1 modes -  Not done in this run

     Representation    50      1 modes -  Not done in this run

     Representation    51      1 modes -  Not done in this run

     Representation    52      1 modes -  Not done in this run

     Representation    53      1 modes -  Not done in this run

     Representation    54      1 modes -  Not done in this run

     Representation    55      1 modes -  Not done in this run

     Representation    56      1 modes -  Not done in this run

     Representation    57      1 modes -  Not done in this run

     Representation    58      1 modes -  Not done in this run

     Representation    59      1 modes -  Not done in this run

     Representation    60      1 modes -  Not done in this run

     Representation    61      1 modes -  Not done in this run

     Representation    62      1 modes -  Not done in this run

     Representation    63      1 modes -  Not done in this run

     Representation    64      1 modes -  Not done in this run

     Representation    65      1 modes -  Not done in this run

     Representation    66      1 modes -  Not done in this run

     Representation    67      1 modes -  Not done in this run

     Representation    68      1 modes -  Not done in this run

     Representation    69      1 modes -  Not done in this run

     Representation    70      1 modes -  Not done in this run

     Representation    71      1 modes -  Not done in this run

     Representation    72      1 modes -  Not done in this run

     Representation    73      1 modes -  Not done in this run

     Representation    74      1 modes -  Not done in this run

     Representation    75      1 modes -  Not done in this run

     Representation    76      1 modes -  Not done in this run

     Representation    77      1 modes -  Not done in this run

     Representation    78      1 modes -  Not done in this run

     Representation    79      1 modes -  Not done in this run

     Representation    80      1 modes -  Not done in this run

     Representation    81      1 modes -  Not done in this run

     Representation    82      1 modes -  Not done in this run

     Representation    83      1 modes -  Not done in this run

     Representation    84      1 modes -  Not done in this run

     Representation    85      1 modes -  Not done in this run

     Representation    86      1 modes -  Not done in this run

     Representation    87      1 modes -  Not done in this run

     Representation    88      1 modes -  Not done in this run

     Representation    89      1 modes -  Not done in this run

     Representation    90      1 modes -  Not done in this run

     Representation    91      1 modes -  Not done in this run

     Representation    92      1 modes -  Not done in this run

     Representation    93      1 modes -  Not done in this run

     Representation    94      1 modes -  Not done in this run

     Representation    95      1 modes -  Not done in this run

     Representation    96      1 modes -  Not done in this run

     Representation    97      1 modes -  Not done in this run

     Representation    98      1 modes -  Not done in this run

     Representation    99      1 modes -  Not done in this run

     Representation   100      1 modes -  Not done in this run

     Representation   101      1 modes -  Not done in this run

     Representation   102      1 modes -  Not done in this run

     Representation   103      1 modes -  Not done in this run

     Representation   104      1 modes -  Not done in this run

     Representation   105      1 modes -  Not done in this run

     Representation   106      1 modes -  Not done in this run

     Representation   107      1 modes -  Not done in this run

     Representation   108      1 modes -  Not done in this run

     Compute atoms:     4,



     Alpha used in Ewald sum =   2.7000
     PHONON       :   3m28.04s CPU     52.10s WALL


     Electric Fields Calculation

      iter #   1 total cpu time :   156.5 secs   av.it.:   6.8
      thresh= 1.000E-02 alpha_mix =  0.700 |ddv_scf|^2 =  4.764E-09

      iter #   2 total cpu time :   205.3 secs   av.it.:  16.0
      thresh= 6.902E-06 alpha_mix =  0.700 |ddv_scf|^2 =  3.015E-09

      iter #   3 total cpu time :   252.6 secs   av.it.:  15.7
      thresh= 5.491E-06 alpha_mix =  0.700 |ddv_scf|^2 =  2.574E-10

      iter #   4 total cpu time :   300.1 secs   av.it.:  15.7
      thresh= 1.604E-06 alpha_mix =  0.700 |ddv_scf|^2 =  9.088E-12

      iter #   5 total cpu time :   346.5 secs   av.it.:  15.0
      thresh= 3.015E-07 alpha_mix =  0.700 |ddv_scf|^2 =  2.560E-12

      iter #   6 total cpu time :   394.0 secs   av.it.:  15.3
      thresh= 1.600E-07 alpha_mix =  0.700 |ddv_scf|^2 =  5.211E-14

      iter #   7 total cpu time :   441.0 secs   av.it.:  15.3
      thresh= 2.283E-08 alpha_mix =  0.700 |ddv_scf|^2 =  2.858E-15

     End of electric fields calculation

          Dielectric constant in cartesian axis 

          (       2.520220727       0.000000000       0.000000000 )
          (       0.000000000       2.520323996       0.000094466 )
          (       0.000000000       0.000094468       2.551897085 )

          Effective charges (d Force / dE) in cartesian axis

           atom      1   Si 
      Ex  (        3.00037        0.00000        0.00000 )
      Ey  (        0.00000        3.63218        0.36831 )
      Ez  (        0.00000       -0.31124        3.43647 )
           atom      2   Si 
      Ex  (        3.00037        0.00000        0.00000 )
      Ey  (        0.00000        3.63218        0.36830 )
      Ez  (        0.00000       -0.31123        3.43646 )
           atom      3   Si 
      Ex  (        3.00037        0.00000        0.00000 )
      Ey  (        0.00000        3.63218        0.36831 )
      Ez  (        0.00000       -0.31124        3.43646 )
           atom      4   Si 
      Ex  (        3.00037        0.00000        0.00000 )
      Ey  (        0.00000        3.63218        0.36831 )
      Ez  (        0.00000       -0.31124        3.43646 )
           atom      5   O  
      Ex  (       -1.30588       -0.50138        0.30988 )
      Ey  (       -0.44168       -2.00611        0.69181 )
      Ez  (        0.23767        0.73818       -1.71607 )
           atom      6   O  
      Ex  (       -1.30588       -0.50138        0.30988 )
      Ey  (       -0.44168       -2.00611        0.69181 )
      Ez  (        0.23767        0.73818       -1.71607 )
           atom      7   O  
      Ex  (       -1.30588       -0.50138        0.30988 )
      Ey  (       -0.44169       -2.00611        0.69181 )
      Ez  (        0.23767        0.73818       -1.71607 )
           atom      8   O  
      Ex  (       -1.30588       -0.50138        0.30988 )
      Ey  (       -0.44169       -2.00611        0.69181 )
      Ez  (        0.23767        0.73818       -1.71607 )
           atom      9   O  
      Ex  (       -1.42263       -0.50945       -0.44437 )
      Ey  (       -0.56843       -1.89129       -0.61433 )
      Ez  (       -0.52053       -0.57526       -1.71593 )
           atom     10   O  
      Ex  (       -1.42263       -0.50945       -0.44437 )
      Ey  (       -0.56843       -1.89129       -0.61432 )
      Ez  (       -0.52053       -0.57526       -1.71593 )
           atom     11   O  
      Ex  (       -1.42263       -0.50945       -0.44437 )
      Ey  (       -0.56843       -1.89129       -0.61433 )
      Ez  (       -0.52053       -0.57526       -1.71593 )
           atom     12   O  
      Ex  (       -1.42263       -0.50945       -0.44437 )
      Ey  (       -0.56843       -1.89129       -0.61433 )
      Ez  (       -0.52053       -0.57526       -1.71593 )
           atom     13   Si 
      Ex  (        3.47380        0.27238       -0.31845 )
      Ey  (        0.27330        3.15820       -0.18410 )
      Ez  (        0.26986        0.15587        3.43588 )
           atom     14   Si 
      Ex  (        3.47380        0.27238       -0.31845 )
      Ey  (        0.27330        3.15820       -0.18410 )
      Ez  (        0.26986        0.15587        3.43588 )
           atom     15   Si 
      Ex  (        3.47380        0.27238       -0.31845 )
      Ey  (        0.27330        3.15820       -0.18410 )
      Ez  (        0.26986        0.15587        3.43588 )
           atom     16   Si 
      Ex  (        3.47380        0.27238       -0.31845 )
      Ey  (        0.27330        3.15820       -0.18410 )
      Ez  (        0.26986        0.15587        3.43588 )
           atom     17   O  
      Ex  (       -2.24165       -0.09664       -0.75378 )
      Ey  (       -0.03731       -1.07275       -0.07754 )
      Ez  (       -0.75839       -0.16331       -1.71502 )
           atom     18   O  
      Ex  (       -2.24165       -0.09664       -0.75378 )
      Ey  (       -0.03731       -1.07275       -0.07754 )
      Ez  (       -0.75839       -0.16331       -1.71502 )
           atom     19   O  
      Ex  (       -2.24165       -0.09664       -0.75378 )
      Ey  (       -0.03731       -1.07275       -0.07754 )
      Ez  (       -0.75839       -0.16331       -1.71502 )
           atom     20   O  
      Ex  (       -2.24165       -0.09664       -0.75378 )
      Ey  (       -0.03731       -1.07275       -0.07754 )
      Ez  (       -0.75839       -0.16331       -1.71502 )
           atom     21   O  
      Ex  (       -2.24165        0.09664        0.75378 )
      Ey  (        0.03731       -1.07275       -0.07754 )
      Ez  (        0.75839       -0.16331       -1.71502 )
           atom     22   O  
      Ex  (       -2.24165        0.09664        0.75378 )
      Ey  (        0.03731       -1.07275       -0.07754 )
      Ez  (        0.75839       -0.16331       -1.71502 )
           atom     23   O  
      Ex  (       -2.24165        0.09664        0.75378 )
      Ey  (        0.03731       -1.07275       -0.07754 )
      Ez  (        0.75839       -0.16331       -1.71502 )
           atom     24   O  
      Ex  (       -2.24165        0.09664        0.75378 )
      Ey  (        0.03731       -1.07275       -0.07754 )
      Ez  (        0.75839       -0.16331       -1.71502 )
           atom     25   Si 
      Ex  (        3.47380       -0.27238        0.31845 )
      Ey  (       -0.27330        3.15820       -0.18410 )
      Ez  (       -0.26986        0.15587        3.43588 )
           atom     26   Si 
      Ex  (        3.47380       -0.27238        0.31845 )
      Ey  (       -0.27330        3.15820       -0.18410 )
      Ez  (       -0.26986        0.15587        3.43588 )
           atom     27   Si 
      Ex  (        3.47380       -0.27238        0.31845 )
      Ey  (       -0.27330        3.15820       -0.18410 )
      Ez  (       -0.26986        0.15587        3.43588 )
           atom     28   Si 
      Ex  (        3.47380       -0.27238        0.31845 )
      Ey  (       -0.27330        3.15820       -0.18410 )
      Ez  (       -0.26986        0.15587        3.43588 )
           atom     29   O  
      Ex  (       -1.42263        0.50945        0.44437 )
      Ey  (        0.56843       -1.89129       -0.61433 )
      Ez  (        0.52053       -0.57526       -1.71593 )
           atom     30   O  
      Ex  (       -1.42263        0.50945        0.44437 )
      Ey  (        0.56843       -1.89129       -0.61432 )
      Ez  (        0.52053       -0.57526       -1.71593 )
           atom     31   O  
      Ex  (       -1.42263        0.50945        0.44437 )
      Ey  (        0.56843       -1.89129       -0.61433 )
      Ez  (        0.52053       -0.57526       -1.71593 )
           atom     32   O  
      Ex  (       -1.42263        0.50945        0.44437 )
      Ey  (        0.56843       -1.89129       -0.61433 )
      Ez  (        0.52053       -0.57526       -1.71593 )
           atom     33   O  
      Ex  (       -1.30588        0.50138       -0.30988 )
      Ey  (        0.44168       -2.00611        0.69181 )
      Ez  (       -0.23767        0.73818       -1.71607 )
           atom     34   O  
      Ex  (       -1.30588        0.50138       -0.30988 )
      Ey  (        0.44168       -2.00611        0.69181 )
      Ez  (       -0.23767        0.73818       -1.71607 )
           atom     35   O  
      Ex  (       -1.30588        0.50138       -0.30988 )
      Ey  (        0.44169       -2.00611        0.69181 )
      Ez  (       -0.23767        0.73818       -1.71607 )
           atom     36   O  
      Ex  (       -1.30588        0.50138       -0.30988 )
      Ey  (        0.44169       -2.00611        0.69181 )
      Ez  (       -0.23767        0.73818       -1.71607 )


     Representation # 10 mode #  10

     Self-consistent Calculation

      iter #   1 total cpu time :   544.0 secs   av.it.:   5.0
      thresh= 1.000E-02 alpha_mix =  0.700 |ddv_scf|^2 =  1.902E-08

      iter #   2 total cpu time :   559.2 secs   av.it.:  14.9
      thresh= 1.379E-05 alpha_mix =  0.700 |ddv_scf|^2 =  1.631E-08

      iter #   3 total cpu time :   574.1 secs   av.it.:  14.0
      thresh= 1.277E-05 alpha_mix =  0.700 |ddv_scf|^2 =  3.142E-10

      iter #   4 total cpu time :   589.0 secs   av.it.:  14.0
      thresh= 1.773E-06 alpha_mix =  0.700 |ddv_scf|^2 =  4.561E-12

      iter #   5 total cpu time :   604.6 secs   av.it.:  15.0
      thresh= 2.136E-07 alpha_mix =  0.700 |ddv_scf|^2 =  1.557E-12

      iter #   6 total cpu time :   619.9 secs   av.it.:  14.6
      thresh= 1.248E-07 alpha_mix =  0.700 |ddv_scf|^2 =  1.594E-13

      iter #   7 total cpu time :   635.3 secs   av.it.:  15.0
      thresh= 3.993E-08 alpha_mix =  0.700 |ddv_scf|^2 =  3.081E-14

      iter #   8 total cpu time :   651.0 secs   av.it.:  14.5
      thresh= 1.755E-08 alpha_mix =  0.700 |ddv_scf|^2 =  1.968E-15

     End of self-consistent calculation

     Convergence has been achieved 

     Dynamical matrix:
        10    1 -0.012425  0.000001
        10    2  0.000000  0.000000
        10    3  0.000000  0.000000
        10    4 -0.012422 -0.000001
        10    5  0.000000  0.000000
        10    6  0.000000  0.000000
        10    7 -0.041895  0.000000
        10    8  0.000000  0.000000
        10    9  0.000000  0.000000
        10   10  0.819079  0.000000
        10   11  0.000000  0.000000
        10   12  0.000000  0.000000
        10   13  0.002126  0.000000
        10   14  0.020329  0.000002
        10   15 -0.002742  0.000000
        10   16  0.009059 -0.000000
        10   17 -0.000656 -0.000001
        10   18 -0.001293  0.000001
        10   19  0.016589 -0.000001
        10   20  0.002011  0.000000
        10   21 -0.001762  0.000001
        10   22 -0.201354  0.000004
        10   23 -0.163478  0.000002
        10   24  0.078097 -0.000004
        10   25  0.007904 -0.000001
        10   26  0.001060  0.000001
        10   27  0.002084 -0.000001
        10   28  0.001343  0.000000
        10   29  0.014391 -0.000001
        10   30 -0.004227  0.000001
        10   31 -0.186651 -0.000008
        10   32 -0.065512  0.000001
        10   33 -0.164101 -0.000003
        10   34  0.017334 -0.000001
        10   35  0.002735 -0.000001
        10   36  0.002887 -0.000001
        10   37 -0.029082  0.000000
        10   38  0.006087  0.000001
        10   39  0.000939  0.000001
        10   40  0.035862  0.000000
        10   41 -0.048599 -0.000000
        10   42  0.054703  0.000001
        10   43 -0.020374  0.000001
        10   44 -0.080093 -0.000002
        10   45 -0.043860  0.000001
        10   46 -0.031229 -0.000002
        10   47  0.005850  0.000000
        10   48  0.008211  0.000001
        10   49 -0.039866 -0.000004
        10   50 -0.011777 -0.000001
        10   51 -0.036757 -0.000003
        10   52  0.018516  0.000001
        10   53  0.000884  0.000002
        10   54  0.006757  0.000004
        10   55  0.017068 -0.000002
        10   56  0.009766  0.000000
        10   57  0.009364  0.000000
        10   58  0.006440  0.000003
        10   59 -0.009659  0.000001
        10   60  0.006374  0.000002
        10   61 -0.039866 -0.000004
        10   62  0.011777  0.000001
        10   63  0.036757  0.000003
        10   64  0.018516  0.000001
        10   65 -0.000884 -0.000002
        10   66 -0.006757 -0.000004
        10   67  0.017068 -0.000002
        10   68 -0.009766 -0.000000
        10   69 -0.009364 -0.000000
        10   70  0.006440  0.000003
        10   71  0.009659 -0.000001
        10   72 -0.006374 -0.000002
        10   73 -0.029082  0.000000
        10   74 -0.006087 -0.000001
        10   75 -0.000939 -0.000001
        10   76  0.035862  0.000000
        10   77  0.048599  0.000000
        10   78 -0.054703 -0.000001
        10   79 -0.020374  0.000001
        10   80  0.080093  0.000002
        10   81  0.043860 -0.000001
        10   82 -0.031229 -0.000002
        10   83 -0.005850 -0.000000
        10   84 -0.008211 -0.000001
        10   85  0.007904 -0.000001
        10   86 -0.001060 -0.000001
        10   87 -0.002084  0.000001
        10   88  0.001343  0.000000
        10   89 -0.014391  0.000001
        10   90  0.004227 -0.000001
        10   91 -0.186651 -0.000008
        10   92  0.065512 -0.000001
        10   93  0.164101  0.000003
        10   94  0.017334 -0.000001
        10   95 -0.002735  0.000001
        10   96 -0.002887  0.000001
        10   97  0.002126  0.000000
        10   98 -0.020329 -0.000002
        10   99  0.002742 -0.000000
        10  100  0.009059 -0.000000
        10  101  0.000656  0.000001
        10  102  0.001293 -0.000001
        10  103  0.016589 -0.000001
        10  104 -0.002011 -0.000000
        10  105  0.001762 -0.000001
        10  106 -0.201354  0.000004
        10  107  0.163478 -0.000002
        10  108 -0.078097  0.000004
 
     PHONON       :      1h13m CPU  10m54.05s WALL

     INITIALIZATION: 
     phq_setup    :      1.61s CPU      0.96s WALL (       1 calls)
     phq_init     :     17.58s CPU     12.46s WALL (       1 calls)
 
     phq_init     :     17.58s CPU     12.46s WALL (       1 calls)
     init_vloc    :      1.03s CPU      0.48s WALL (       2 calls)
     init_us_1    :      0.80s CPU      0.12s WALL (       2 calls)
 
     DIELECTRIC CONSTANT AND EFFECTIVE CHARGES:
     solve_e      :   2727.42s CPU    389.23s WALL (       1 calls)
     dielec       :      0.23s CPU      0.27s WALL (       1 calls)
     zstar_eu     :    667.08s CPU     94.82s WALL (       1 calls)
 
     DYNAMICAL MATRIX:
     dynmat0      :     15.73s CPU     11.82s WALL (       1 calls)
     phqscf       :    794.45s CPU    115.77s WALL (       1 calls)
     dynmatrix    :      1.84s CPU      1.85s WALL (       1 calls)
 
     phqscf       :    794.45s CPU    115.77s WALL (       1 calls)
     solve_linter :    788.81s CPU    114.62s WALL (       1 calls)
     drhodv       :      4.98s CPU      0.71s WALL (       1 calls)
 
     dynmat0      :     15.73s CPU     11.82s WALL (       1 calls)
     dynmat_us    :      6.74s CPU      3.01s WALL (       1 calls)
     d2ionq       :      4.46s CPU      4.48s WALL (       1 calls)
 
     dynmat_us    :      6.74s CPU      3.01s WALL (       1 calls)
 
     phqscf       :    794.45s CPU    115.77s WALL (       1 calls)
     solve_linter :    788.81s CPU    114.62s WALL (       1 calls)
 
     solve_linter :    788.81s CPU    114.62s WALL (       1 calls)
     dvqpsi_us    :    661.94s CPU     92.86s WALL (     218 calls)
     ortho        :      6.47s CPU      0.96s WALL (      64 calls)
     cgsolve      :   3154.54s CPU    439.12s WALL (      64 calls)
     incdrhoscf   :    167.67s CPU     23.67s WALL (      58 calls)
     vpsifft      :     34.34s CPU      4.76s WALL (      14 calls)
     dv_of_drho   :     10.52s CPU      1.49s WALL (      29 calls)
     mix_pot      :      4.75s CPU      2.16s WALL (      15 calls)
     psymdvscf    :      3.38s CPU      3.22s WALL (       8 calls)
 
     dvqpsi_us    :    661.94s CPU     92.86s WALL (     218 calls)
     dvqpsi_us_on :    138.44s CPU     20.09s WALL (     218 calls)
 
     cgsolve      :   3154.54s CPU    439.12s WALL (      64 calls)
     ch_psi       :   3088.41s CPU    429.48s WALL (    1359 calls)
 
     ch_psi       :   3088.41s CPU    429.48s WALL (    1359 calls)
     h_psi        :   2390.44s CPU    329.74s WALL (    1387 calls)
     last         :    748.14s CPU    108.32s WALL (    1359 calls)
 
     h_psi        :   2390.44s CPU    329.74s WALL (    1387 calls)
     add_vuspsi   :    139.97s CPU     21.04s WALL (    1387 calls)
 
     incdrhoscf   :    167.67s CPU     23.67s WALL (      58 calls)
 
 
      General routines
     calbec       :    303.77s CPU     44.68s WALL (    2780 calls)
     fft          :     10.11s CPU      2.61s WALL (     344 calls)
     ffts         :      8.85s CPU      1.48s WALL (     326 calls)
     fftw         :   2486.59s CPU    339.12s WALL (  265400 calls)
     davcio       :      7.54s CPU      1.32s WALL (     992 calls)
     write_rec    :      4.04s CPU      1.77s WALL (      16 calls)
 
 
     PHONON       :      1h13m CPU  10m54.05s WALL

 
   This run was terminated on:  10: 6:18  14Oct2019            

=------------------------------------------------------------------------------=
   JOB DONE.
=------------------------------------------------------------------------------=
