
     Program PHONON v.6.4.1 starts on 14Oct2019 at 11:38: 7 

     This program is part of the open-source Quantum ESPRESSO suite
     for quantum simulation of materials; please cite
         "P. Giannozzi et al., J. Phys.:Condens. Matter 21 395502 (2009);
         "P. Giannozzi et al., J. Phys.:Condens. Matter 29 465901 (2017);
          URL http://www.quantum-espresso.org", 
     in publications or presentations arising from this work. More details at
     http://www.quantum-espresso.org/quote

     Parallel version (MPI & OpenMP), running on     768 processor cores
     Number of MPI processes:                96
     Threads/MPI process:                     8

     MPI processes distributed on     4 nodes
     K-points division:     npool     =       4
     R & G space division:  proc/nbgrp/npool/nimage =      24

     Reading data from directory:
     ./SiO2_OR_36_us.save/
     Message from routine read_upf::
     Pseudo file Si.pbesol-n-rrkjus_psl.0.1.UPF has been fixed on the fly.
To avoid this message in the future, permanently fix 
 your pseudo files following these instructions: 
https://gitlab.com/QEF/q-e/blob/master/upftools/how_to_fix_upf.md
     Message from routine read_upf::
     Pseudo file O.pbesol-n-rrkjus_psl.0.1.UPF has been fixed on the fly.
To avoid this message in the future, permanently fix 
 your pseudo files following these instructions: 
https://gitlab.com/QEF/q-e/blob/master/upftools/how_to_fix_upf.md

     IMPORTANT: XC functional enforced from input :
     Exchange-correlation      = PBESOL ( 1  4 10  8 0 0)
     Any further DFT definition will be discarded
     Please, verify this is what you really want

 
     Parallelization info
     --------------------
     sticks:   dense  smooth     PW     G-vecs:    dense   smooth      PW
     Min         247     158     42                 8483     4348     618
     Max         248     160     43                 8487     4349     621
     Sum        5941    3811   1031               203635   104367   14891
 

     Check: negative core charge=   -0.000375

     Calculation of q =    0.0000000   0.0000000   0.0000000

     Subspace diagonalization in iterative solution of the eigenvalue problem:
     one sub-group per band group will be used
     scalapack distributed-memory algorithm (size of sub-group:  3*  3 procs)

 
     Parallelization info
     --------------------
     sticks:   dense  smooth     PW     G-vecs:    dense   smooth      PW
     Min         247     158     42                 8483     4348     618
     Max         248     160     43                 8487     4349     621
     Sum        5941    3811   1031               203635   104367   14891
 

     Title: 
     Dielectric contant and Born Charges for for SiO2 O.R. 36  atoms supercell  


     bravais-lattice index     =            8
     lattice parameter (alat)  =      18.5722  a.u.
     unit-cell volume          =    3051.0810 (a.u.)^3
     number of atoms/cell      =           36
     number of atomic types    =            2
     number of electrons       =       192.00
     number of Kohn-Sham states=           96
     kinetic-energy cutoff     =      40.0000  Ry
     charge density cutoff     =     250.0000  Ry
     Exchange-correlation      = PBESOL ( 1  4 10  8 0 0)

     celldm(1)=  18.572236  celldm(2)=   0.866025  celldm(3)=   0.549959
     celldm(4)=   0.000000  celldm(5)=   0.000000  celldm(6)=   0.000000

     crystal axes: (cart. coord. in units of alat)
               a(1) = (   1.000000   0.000000   0.000000 )  
               a(2) = (   0.000000   0.866025   0.000000 )  
               a(3) = (   0.000000   0.000000   0.549959 )  

     reciprocal axes: (cart. coord. in units 2 pi/alat)
               b(1) = (  1.000000  0.000000  0.000000 )  
               b(2) = (  0.000000  1.154701  0.000000 )  
               b(3) = (  0.000000  0.000000  1.818316 )  


     PseudoPot. # 1 for Si read from file:
     ./Si.pbesol-n-rrkjus_psl.0.1.UPF
     MD5 check sum: 8f6f7a39fd7bdb61d4720ad3dd1f1dba
     Pseudo is Ultrasoft + core correction, Zval =  4.0
     Generated using "atomic" code by A. Dal Corso v.5.0.2 svn rev. 9415
     Using radial grid of 1141 points,  4 beta functions with: 
                l(1) =   0
                l(2) =   0
                l(3) =   1
                l(4) =   1
     Q(r) pseudized with 0 coefficients 


     PseudoPot. # 2 for O  read from file:
     ./O.pbesol-n-rrkjus_psl.0.1.UPF
     MD5 check sum: 4e7ba3f804caa5f95b4e026f863b218d
     Pseudo is Ultrasoft + core correction, Zval =  6.0
     Generated using "atomic" code by A. Dal Corso v.5.0.2 svn rev. 9415
     Using radial grid of 1095 points,  4 beta functions with: 
                l(1) =   0
                l(2) =   0
                l(3) =   1
                l(4) =   1
     Q(r) pseudized with 0 coefficients 


     atomic species   valence    mass     pseudopotential
        Si             4.00    47.86700     Si( 1.00)
        O              6.00    15.99940     O ( 1.00)

      2 Sym. Ops. (no inversion) found



   Cartesian axes

     site n.     atom                  positions (alat units)
         1           Si  tau(   1) = (   0.2355733   0.0000000   0.0000000  )
         2           Si  tau(   2) = (   0.7355732   0.0000000   0.0000000  )
         3           Si  tau(   3) = (   0.4837387   0.4330127   0.0000000  )
         4           Si  tau(   4) = (   0.9837388   0.4330127   0.0000000  )
         5           O   tau(   5) = (   0.1399319   0.7468191   0.0592770  )
         6           O   tau(   6) = (   0.6399319   0.7468192   0.0592770  )
         7           O   tau(   7) = (   0.3899565   0.3155350   0.0664827  )
         8           O   tau(   8) = (   0.8899565   0.3155349   0.0664827  )
         9           O   tau(   9) = (   0.3295200   0.0595910   0.1212084  )
        10           O   tau(  10) = (   0.8295201   0.0595910   0.1212085  )
        11           O   tau(  11) = (   0.0780996   0.4951179   0.1195981  )
        12           O   tau(  12) = (   0.5780997   0.4951180   0.1195981  )
        13           Si  tau(  13) = (   0.3830231   0.2012792   0.1849174  )
        14           Si  tau(  14) = (   0.8830231   0.2012792   0.1849174  )
        15           Si  tau(  15) = (   0.1325110   0.6368559   0.1814016  )
        16           Si  tau(  16) = (   0.6325108   0.6368559   0.1814016  )
        17           O   tau(  17) = (   0.0310675   0.1757255   0.2508372  )
        18           O   tau(  18) = (   0.5310676   0.1757256   0.2508373  )
        19           O   tau(  19) = (   0.2812343   0.6139808   0.2463042  )
        20           O   tau(  20) = (   0.7812344   0.6139808   0.2463042  )
        21           O   tau(  21) = (   0.0310675   0.6902999   0.2991221  )
        22           O   tau(  22) = (   0.5310676   0.6902998   0.2991220  )
        23           O   tau(  23) = (   0.2812343   0.2520445   0.3036551  )
        24           O   tau(  24) = (   0.7812344   0.2520446   0.3036551  )
        25           Si  tau(  25) = (   0.3830231   0.6647462   0.3650419  )
        26           Si  tau(  26) = (   0.8830231   0.6647462   0.3650419  )
        27           Si  tau(  27) = (   0.1325110   0.2291695   0.3685577  )
        28           Si  tau(  28) = (   0.6325108   0.2291695   0.3685577  )
        29           O   tau(  29) = (   0.3295200   0.8064344   0.4287509  )
        30           O   tau(  30) = (   0.8295201   0.8064344   0.4287508  )
        31           O   tau(  31) = (   0.0780996   0.3709075   0.4303612  )
        32           O   tau(  32) = (   0.5780997   0.3709074   0.4303612  )
        33           O   tau(  33) = (   0.1399319   0.1192063   0.4906823  )
        34           O   tau(  34) = (   0.6399319   0.1192063   0.4906823  )
        35           O   tau(  35) = (   0.3899565   0.5504904   0.4834766  )
        36           O   tau(  36) = (   0.8899565   0.5504905   0.4834766  )

     number of k points=     8
                       cart. coord. in units 2pi/alat
        k(    1) = (   0.2500000   0.1443376   0.2272895), wk =   0.2500000
        k(    2) = (   0.2500000   0.1443376   0.6818686), wk =   0.2500000
        k(    3) = (   0.2500000   0.4330127   0.2272895), wk =   0.2500000
        k(    4) = (   0.2500000   0.4330127   0.6818686), wk =   0.2500000
        k(    5) = (  -0.2500000   0.1443376  -0.2272895), wk =   0.2500000
        k(    6) = (  -0.2500000   0.1443376  -0.6818686), wk =   0.2500000
        k(    7) = (  -0.2500000   0.4330127  -0.2272895), wk =   0.2500000
        k(    8) = (  -0.2500000   0.4330127  -0.6818686), wk =   0.2500000

     Dense  grid:   203635 G-vectors     FFT dimensions: (  96,  81,  54)

     Smooth grid:   104367 G-vectors     FFT dimensions: (  75,  72,  45)

     Estimated max dynamical RAM per process >      19.08 MB

     Estimated total dynamical RAM >       1.79 GB

     Check: negative core charge=   -0.000375

     The potential is recalculated from file :
     ./_ph0/SiO2_OR_36_us.save/charge-density

     Starting wfcs are  144 atomic wfcs

     Band Structure Calculation
     Davidson diagonalization with overlap

     ethr =  5.21E-12,  avg # of iterations = 14.2

     total cpu time spent up to now is       28.0 secs

     End of band structure calculation

          k = 0.2500 0.1443 0.2273 ( 13039 PWs)   bands (ev):

   -16.8197 -16.5718 -16.3936 -16.2679 -16.0135 -15.9008 -15.7468 -15.6358
   -15.3530 -15.3306 -15.2969 -15.1392 -14.7704 -14.7671 -14.7530 -14.7423
   -14.7359 -14.7177 -14.7133 -14.7050 -14.6951 -14.6850 -14.6806 -14.6644
    -6.1296  -5.9346  -5.8940  -5.8888  -5.2395  -5.0346  -4.8199  -4.5315
    -3.9892  -3.6387  -3.4291  -3.1107  -2.9524  -2.9349  -2.9245  -2.8859
    -2.8173  -2.7567  -2.7493  -2.7149  -2.5821  -2.3367  -2.1887  -2.1227
    -0.7000  -0.6510  -0.6209  -0.6209  -0.4734  -0.4555  -0.3926  -0.3732
    -0.3475  -0.2721  -0.1870  -0.1840   0.0863   0.1398   0.1499   0.3384
     0.4241   0.4314   0.4693   0.6003   0.6808   0.7164   0.8429   0.9019
     0.9434   0.9977   1.0208   1.0388   1.1641   1.2262   1.2363   1.2393
     1.3892   1.4446   1.4569   1.5304   1.6795   1.7180   1.7988   1.9256
     2.0668   2.1032   2.1034   2.1135   2.3358   2.3959   2.4214   2.4327

          k = 0.2500 0.1443 0.6819 ( 13028 PWs)   bands (ev):

   -16.5865 -16.4157 -16.3340 -16.2960 -16.1602 -16.0212 -15.8964 -15.8271
   -15.5048 -15.4084 -15.1829 -14.8291 -14.7932 -14.7889 -14.7620 -14.7442
   -14.7232 -14.7163 -14.7158 -14.7067 -14.7007 -14.6871 -14.6828 -14.6521
    -6.6519  -6.0986  -5.7797  -5.5557  -4.8724  -4.7646  -4.5537  -4.2789
    -4.0384  -3.8937  -3.8202  -3.5359  -3.0350  -2.9779  -2.9011  -2.8571
    -2.8001  -2.6524  -2.5373  -2.5314  -2.4735  -2.4568  -2.3864  -2.2711
    -0.8130  -0.7765  -0.7431  -0.6355  -0.5454  -0.5216  -0.4898  -0.2447
    -0.1875  -0.1684  -0.0707  -0.0283   0.1200   0.2519   0.2657   0.3988
     0.4491   0.4591   0.4670   0.5189   0.6218   0.7813   0.8057   0.9188
     0.9229   1.0200   1.0814   1.1853   1.3035   1.3125   1.3196   1.3508
     1.3716   1.4987   1.5207   1.5581   1.6502   1.7256   1.8020   1.8494
     1.8923   1.9809   2.0361   2.1013   2.2296   2.2686   2.3041   2.3890

          k = 0.2500 0.4330 0.2273 ( 13042 PWs)   bands (ev):

   -16.7312 -16.5709 -16.5095 -16.3928 -15.9055 -15.7974 -15.7459 -15.6624
   -15.3238 -15.3151 -15.2977 -15.2036 -14.7693 -14.7628 -14.7584 -14.7398
   -14.7374 -14.7178 -14.7161 -14.7037 -14.6984 -14.6917 -14.6820 -14.6681
    -6.0333  -5.9339  -5.9126  -5.8791  -5.1869  -5.0170  -4.9907  -4.8170
    -3.6461  -3.4383  -3.4311  -3.2201  -2.9683  -2.9478  -2.9238  -2.9121
    -2.8045  -2.7639  -2.7501  -2.7295  -2.5302  -2.3416  -2.2597  -2.1954
    -0.7097  -0.7011  -0.6872  -0.6813  -0.4329  -0.3693  -0.3544  -0.3367
    -0.2547  -0.2213  -0.1801  -0.1386  -0.0014   0.0791   0.2034   0.2234
     0.4119   0.4199   0.4879   0.5036   0.7236   0.7793   0.8318   0.8556
     0.9520   0.9849   0.9974   1.0366   1.2315   1.2482   1.2685   1.3172
     1.4268   1.4487   1.4857   1.5264   1.6324   1.7248   1.7419   1.7546
     2.0854   2.1110   2.1216   2.1614   2.3716   2.3816   2.4175   2.4239

          k = 0.2500 0.4330 0.6819 ( 13030 PWs)   bands (ev):

   -16.5173 -16.4138 -16.3867 -16.3333 -16.1171 -16.0195 -15.9700 -15.9044
   -15.3936 -15.2795 -15.1911 -14.9592 -14.7892 -14.7713 -14.7663 -14.7377
   -14.7305 -14.7165 -14.7101 -14.7025 -14.6940 -14.6837 -14.6824 -14.6672
    -6.4494  -6.1082  -5.9812  -5.7674  -4.7583  -4.6479  -4.5438  -4.3731
    -3.9210  -3.8194  -3.8122  -3.6630  -2.9605  -2.9159  -2.8986  -2.8451
    -2.8361  -2.6491  -2.5888  -2.5158  -2.4930  -2.4011  -2.3946  -2.3234
    -0.7904  -0.7468  -0.7408  -0.6565  -0.6263  -0.6190  -0.5189  -0.3198
    -0.1069  -0.0628  -0.0238   0.0393   0.1196   0.1252   0.1881   0.2771
     0.4200   0.4257   0.4515   0.5072   0.7546   0.8689   0.9109   0.9627
     0.9752   1.0778   1.1094   1.1524   1.1814   1.2968   1.3014   1.3424
     1.3951   1.4946   1.5288   1.5500   1.6235   1.6668   1.7594   1.8595
     1.9141   1.9667   2.0361   2.1800   2.2154   2.3145   2.3382   2.3441

          k =-0.2500 0.1443-0.2273 ( 13039 PWs)   bands (ev):

   -16.8197 -16.5705 -16.3906 -16.2670 -16.0149 -15.9105 -15.7573 -15.6377
   -15.3520 -15.3185 -15.2802 -15.1348 -14.7726 -14.7683 -14.7573 -14.7414
   -14.7406 -14.7249 -14.7199 -14.6988 -14.6958 -14.6830 -14.6814 -14.6621
    -6.1296  -5.9329  -5.8931  -5.8890  -5.2366  -5.0331  -4.8217  -4.5340
    -3.9857  -3.6349  -3.4254  -3.1155  -2.9486  -2.9310  -2.9170  -2.8844
    -2.7973  -2.7630  -2.7611  -2.7147  -2.6018  -2.3580  -2.1995  -2.1217
    -0.7430  -0.7024  -0.6451  -0.6213  -0.4586  -0.4323  -0.3766  -0.3687
    -0.3456  -0.2464  -0.1875  -0.1433   0.1596   0.1717   0.2258   0.3337
     0.4075   0.4127   0.4321   0.6035   0.7209   0.7540   0.8342   0.8410
     0.9040   0.9383   0.9548   1.0144   1.1692   1.2359   1.2582   1.2755
     1.3855   1.4770   1.4858   1.5100   1.6665   1.7021   1.7452   1.9240
     2.0707   2.1258   2.1666   2.1734   2.3160   2.3695   2.4034   2.4121

          k =-0.2500 0.1443-0.6819 ( 13028 PWs)   bands (ev):

   -16.5863 -16.4125 -16.3297 -16.2952 -16.1608 -16.0293 -15.9095 -15.8291
   -15.5031 -15.3946 -15.1697 -14.8201 -14.7941 -14.7940 -14.7678 -14.7474
   -14.7269 -14.7190 -14.7177 -14.7037 -14.7037 -14.6890 -14.6817 -14.6505
    -6.6516  -6.0973  -5.7784  -5.5551  -4.8751  -4.7658  -4.5479  -4.2713
    -4.0351  -3.8936  -3.8271  -3.5473  -3.0394  -2.9649  -2.8892  -2.8447
    -2.8035  -2.6424  -2.5399  -2.5269  -2.4820  -2.4707  -2.4184  -2.2801
    -0.8130  -0.7927  -0.7590  -0.6199  -0.5507  -0.5106  -0.4882  -0.2413
    -0.1884  -0.1731  -0.0613  -0.0326   0.1537   0.2710   0.2780   0.3975
     0.4905   0.5021   0.5105   0.5222   0.6206   0.7331   0.7812   0.8551
     0.8594   1.0436   1.0733   1.1760   1.2788   1.3093   1.3222   1.3312
     1.3495   1.4919   1.5406   1.5485   1.7414   1.7622   1.7996   1.8532
     1.9179   1.9857   2.0823   2.1041   2.2245   2.2320   2.2792   2.3410

          k =-0.2500 0.4330-0.2273 ( 13042 PWs)   bands (ev):

   -16.7316 -16.5688 -16.5068 -16.3944 -15.8991 -15.8145 -15.7595 -15.6606
   -15.3330 -15.2883 -15.2782 -15.2050 -14.7695 -14.7626 -14.7626 -14.7471
   -14.7359 -14.7290 -14.7252 -14.7004 -14.6943 -14.6883 -14.6787 -14.6685
    -6.0341  -5.9321  -5.9106  -5.8794  -5.1803  -5.0227  -4.9872  -4.8207
    -3.6419  -3.4294  -3.4281  -3.2310  -2.9488  -2.9348  -2.9187  -2.9070
    -2.8351  -2.7587  -2.7466  -2.7420  -2.5385  -2.3567  -2.2904  -2.1809
    -0.7611  -0.7467  -0.6925  -0.6408  -0.4728  -0.3705  -0.3634  -0.3374
    -0.2699  -0.1452  -0.1423  -0.1296   0.1355   0.1692   0.1803   0.1954
     0.3941   0.4240   0.4641   0.5099   0.6962   0.7762   0.8290   0.8488
     0.9295   0.9537   0.9541   0.9979   1.2319   1.2400   1.2814   1.3439
     1.4414   1.4874   1.5142   1.5385   1.6277   1.6379   1.6632   1.8042
     2.1011   2.1293   2.1781   2.2191   2.3415   2.3670   2.3840   2.4091

          k =-0.2500 0.4330-0.6819 ( 13030 PWs)   bands (ev):

   -16.5184 -16.4085 -16.3813 -16.3350 -16.1153 -16.0310 -15.9862 -15.8961
   -15.4039 -15.2569 -15.1763 -14.9596 -14.7872 -14.7785 -14.7717 -14.7405
   -14.7361 -14.7160 -14.7157 -14.6994 -14.6938 -14.6825 -14.6811 -14.6664
    -6.4494  -6.1068  -5.9793  -5.7678  -4.7664  -4.6370  -4.5515  -4.3586
    -3.9109  -3.8258  -3.8121  -3.6809  -2.9628  -2.8898  -2.8802  -2.8609
    -2.8297  -2.6533  -2.5673  -2.5424  -2.4713  -2.4412  -2.4182  -2.3279
    -0.7851  -0.7718  -0.7600  -0.6543  -0.6356  -0.5895  -0.5065  -0.3152
    -0.1129  -0.0660  -0.0260   0.0142   0.1596   0.1927   0.1991   0.2646
     0.4381   0.4557   0.4838   0.4892   0.8157   0.8386   0.8704   0.8706
     0.9707   1.0464   1.0651   1.1448   1.1959   1.2833   1.2844   1.3762
     1.3984   1.4767   1.5047   1.5223   1.7126   1.7375   1.7660   1.8712
     1.8997   2.0000   2.0966   2.1724   2.2355   2.2541   2.2613   2.3415

     highest occupied level (ev):     2.4327

     Writing output data file SiO2_OR_36_us.save/

     Dielectric contant and Born Charges for for SiO2 O.R. 36  atoms supercell  

     bravais-lattice index     =            8
     lattice parameter (alat)  =      18.5722  a.u.
     unit-cell volume          =    3051.0810 (a.u.)^3
     number of atoms/cell      =           36
     number of atomic types    =            2
     kinetic-energy cut-off    =      40.0000  Ry
     charge density cut-off    =     250.0000  Ry
     convergence threshold     =      1.0E-14
     beta                      =       0.7000
     number of iterations used =            4
     Exchange-correlation      = PBESOL ( 1  4 10  8 0 0)


     celldm(1)=   18.57224  celldm(2)=    0.86603  celldm(3)=    0.54996
     celldm(4)=    0.00000  celldm(5)=    0.00000  celldm(6)=    0.00000

     crystal axes: (cart. coord. in units of alat)
               a(1) = (  1.0000  0.0000  0.0000 )  
               a(2) = (  0.0000  0.8660  0.0000 )  
               a(3) = (  0.0000  0.0000  0.5500 )  

     reciprocal axes: (cart. coord. in units 2 pi/alat)
               b(1) = (  1.0000  0.0000  0.0000 )  
               b(2) = (  0.0000  1.1547  0.0000 )  
               b(3) = (  0.0000  0.0000  1.8183 )  


     Atoms inside the unit cell: 

     Cartesian axes

     site n.  atom      mass           positions (alat units)
        1     Si  47.8670   tau(    1) = (    0.23557    0.00000    0.00000  )
        2     Si  47.8670   tau(    2) = (    0.73557    0.00000    0.00000  )
        3     Si  47.8670   tau(    3) = (    0.48374    0.43301    0.00000  )
        4     Si  47.8670   tau(    4) = (    0.98374    0.43301    0.00000  )
        5     O   15.9994   tau(    5) = (    0.13993    0.74682    0.05928  )
        6     O   15.9994   tau(    6) = (    0.63993    0.74682    0.05928  )
        7     O   15.9994   tau(    7) = (    0.38996    0.31553    0.06648  )
        8     O   15.9994   tau(    8) = (    0.88996    0.31553    0.06648  )
        9     O   15.9994   tau(    9) = (    0.32952    0.05959    0.12121  )
       10     O   15.9994   tau(   10) = (    0.82952    0.05959    0.12121  )
       11     O   15.9994   tau(   11) = (    0.07810    0.49512    0.11960  )
       12     O   15.9994   tau(   12) = (    0.57810    0.49512    0.11960  )
       13     Si  47.8670   tau(   13) = (    0.38302    0.20128    0.18492  )
       14     Si  47.8670   tau(   14) = (    0.88302    0.20128    0.18492  )
       15     Si  47.8670   tau(   15) = (    0.13251    0.63686    0.18140  )
       16     Si  47.8670   tau(   16) = (    0.63251    0.63686    0.18140  )
       17     O   15.9994   tau(   17) = (    0.03107    0.17573    0.25084  )
       18     O   15.9994   tau(   18) = (    0.53107    0.17573    0.25084  )
       19     O   15.9994   tau(   19) = (    0.28123    0.61398    0.24630  )
       20     O   15.9994   tau(   20) = (    0.78123    0.61398    0.24630  )
       21     O   15.9994   tau(   21) = (    0.03107    0.69030    0.29912  )
       22     O   15.9994   tau(   22) = (    0.53107    0.69030    0.29912  )
       23     O   15.9994   tau(   23) = (    0.28123    0.25204    0.30366  )
       24     O   15.9994   tau(   24) = (    0.78123    0.25204    0.30366  )
       25     Si  47.8670   tau(   25) = (    0.38302    0.66475    0.36504  )
       26     Si  47.8670   tau(   26) = (    0.88302    0.66475    0.36504  )
       27     Si  47.8670   tau(   27) = (    0.13251    0.22917    0.36856  )
       28     Si  47.8670   tau(   28) = (    0.63251    0.22917    0.36856  )
       29     O   15.9994   tau(   29) = (    0.32952    0.80643    0.42875  )
       30     O   15.9994   tau(   30) = (    0.82952    0.80643    0.42875  )
       31     O   15.9994   tau(   31) = (    0.07810    0.37091    0.43036  )
       32     O   15.9994   tau(   32) = (    0.57810    0.37091    0.43036  )
       33     O   15.9994   tau(   33) = (    0.13993    0.11921    0.49068  )
       34     O   15.9994   tau(   34) = (    0.63993    0.11921    0.49068  )
       35     O   15.9994   tau(   35) = (    0.38996    0.55049    0.48348  )
       36     O   15.9994   tau(   36) = (    0.88996    0.55049    0.48348  )

     Computing dynamical matrix for 
                    q = (   0.0000000   0.0000000   0.0000000 )
 
      2 Sym.Ops. (no q -> -q+G )


     G cutoff = 2184.2817  (   8484 G-vectors)     FFT grid: ( 96, 81, 54)
     G cutoff = 1397.9403  (   4348 G-vectors)  smooth grid: ( 75, 72, 45)
     number of k points=     8
                       cart. coord. in units 2pi/alat
        k(    1) = (   0.2500000   0.1443376   0.2272895), wk =   0.2500000
        k(    2) = (   0.2500000   0.1443376   0.6818686), wk =   0.2500000
        k(    3) = (   0.2500000   0.4330127   0.2272895), wk =   0.2500000
        k(    4) = (   0.2500000   0.4330127   0.6818686), wk =   0.2500000
        k(    5) = (  -0.2500000   0.1443376  -0.2272895), wk =   0.2500000
        k(    6) = (  -0.2500000   0.1443376  -0.6818686), wk =   0.2500000
        k(    7) = (  -0.2500000   0.4330127  -0.2272895), wk =   0.2500000
        k(    8) = (  -0.2500000   0.4330127  -0.6818686), wk =   0.2500000

     PseudoPot. # 1 for Si read from file:
     ./Si.pbesol-n-rrkjus_psl.0.1.UPF
     MD5 check sum: 8f6f7a39fd7bdb61d4720ad3dd1f1dba
     Pseudo is Ultrasoft + core correction, Zval =  4.0
     Generated using "atomic" code by A. Dal Corso v.5.0.2 svn rev. 9415
     Using radial grid of 1141 points,  4 beta functions with: 
                l(1) =   0
                l(2) =   0
                l(3) =   1
                l(4) =   1
     Q(r) pseudized with 0 coefficients 


     PseudoPot. # 2 for O  read from file:
     ./O.pbesol-n-rrkjus_psl.0.1.UPF
     MD5 check sum: 4e7ba3f804caa5f95b4e026f863b218d
     Pseudo is Ultrasoft + core correction, Zval =  6.0
     Generated using "atomic" code by A. Dal Corso v.5.0.2 svn rev. 9415
     Using radial grid of 1095 points,  4 beta functions with: 
                l(1) =   0
                l(2) =   0
                l(3) =   1
                l(4) =   1
     Q(r) pseudized with 0 coefficients 



     Electric field:
     Dielectric constant
     Born effective charges as d Force / d E


     Atomic displacements:
     There are 108 irreducible representations

     Representation     1      1 modes -  Not done in this run

     Representation     2      1 modes -  Not done in this run

     Representation     3      1 modes -  Not done in this run

     Representation     4      1 modes -  Not done in this run

     Representation     5      1 modes -  Not done in this run

     Representation     6      1 modes -  Not done in this run

     Representation     7      1 modes -  Not done in this run

     Representation     8      1 modes -  Not done in this run

     Representation     9      1 modes -  Not done in this run

     Representation    10      1 modes -  To be done

     Representation    11      1 modes -  Not done in this run

     Representation    12      1 modes -  Not done in this run

     Representation    13      1 modes -  Not done in this run

     Representation    14      1 modes -  Not done in this run

     Representation    15      1 modes -  Not done in this run

     Representation    16      1 modes -  Not done in this run

     Representation    17      1 modes -  Not done in this run

     Representation    18      1 modes -  Not done in this run

     Representation    19      1 modes -  Not done in this run

     Representation    20      1 modes -  Not done in this run

     Representation    21      1 modes -  Not done in this run

     Representation    22      1 modes -  Not done in this run

     Representation    23      1 modes -  Not done in this run

     Representation    24      1 modes -  Not done in this run

     Representation    25      1 modes -  Not done in this run

     Representation    26      1 modes -  Not done in this run

     Representation    27      1 modes -  Not done in this run

     Representation    28      1 modes -  Not done in this run

     Representation    29      1 modes -  Not done in this run

     Representation    30      1 modes -  Not done in this run

     Representation    31      1 modes -  Not done in this run

     Representation    32      1 modes -  Not done in this run

     Representation    33      1 modes -  Not done in this run

     Representation    34      1 modes -  Not done in this run

     Representation    35      1 modes -  Not done in this run

     Representation    36      1 modes -  Not done in this run

     Representation    37      1 modes -  Not done in this run

     Representation    38      1 modes -  Not done in this run

     Representation    39      1 modes -  Not done in this run

     Representation    40      1 modes -  Not done in this run

     Representation    41      1 modes -  Not done in this run

     Representation    42      1 modes -  Not done in this run

     Representation    43      1 modes -  Not done in this run

     Representation    44      1 modes -  Not done in this run

     Representation    45      1 modes -  Not done in this run

     Representation    46      1 modes -  Not done in this run

     Representation    47      1 modes -  Not done in this run

     Representation    48      1 modes -  Not done in this run

     Representation    49      1 modes -  Not done in this run

     Representation    50      1 modes -  Not done in this run

     Representation    51      1 modes -  Not done in this run

     Representation    52      1 modes -  Not done in this run

     Representation    53      1 modes -  Not done in this run

     Representation    54      1 modes -  Not done in this run

     Representation    55      1 modes -  Not done in this run

     Representation    56      1 modes -  Not done in this run

     Representation    57      1 modes -  Not done in this run

     Representation    58      1 modes -  Not done in this run

     Representation    59      1 modes -  Not done in this run

     Representation    60      1 modes -  Not done in this run

     Representation    61      1 modes -  Not done in this run

     Representation    62      1 modes -  Not done in this run

     Representation    63      1 modes -  Not done in this run

     Representation    64      1 modes -  Not done in this run

     Representation    65      1 modes -  Not done in this run

     Representation    66      1 modes -  Not done in this run

     Representation    67      1 modes -  Not done in this run

     Representation    68      1 modes -  Not done in this run

     Representation    69      1 modes -  Not done in this run

     Representation    70      1 modes -  Not done in this run

     Representation    71      1 modes -  Not done in this run

     Representation    72      1 modes -  Not done in this run

     Representation    73      1 modes -  Not done in this run

     Representation    74      1 modes -  Not done in this run

     Representation    75      1 modes -  Not done in this run

     Representation    76      1 modes -  Not done in this run

     Representation    77      1 modes -  Not done in this run

     Representation    78      1 modes -  Not done in this run

     Representation    79      1 modes -  Not done in this run

     Representation    80      1 modes -  Not done in this run

     Representation    81      1 modes -  Not done in this run

     Representation    82      1 modes -  Not done in this run

     Representation    83      1 modes -  Not done in this run

     Representation    84      1 modes -  Not done in this run

     Representation    85      1 modes -  Not done in this run

     Representation    86      1 modes -  Not done in this run

     Representation    87      1 modes -  Not done in this run

     Representation    88      1 modes -  Not done in this run

     Representation    89      1 modes -  Not done in this run

     Representation    90      1 modes -  Not done in this run

     Representation    91      1 modes -  Not done in this run

     Representation    92      1 modes -  Not done in this run

     Representation    93      1 modes -  Not done in this run

     Representation    94      1 modes -  Not done in this run

     Representation    95      1 modes -  Not done in this run

     Representation    96      1 modes -  Not done in this run

     Representation    97      1 modes -  Not done in this run

     Representation    98      1 modes -  Not done in this run

     Representation    99      1 modes -  Not done in this run

     Representation   100      1 modes -  Not done in this run

     Representation   101      1 modes -  Not done in this run

     Representation   102      1 modes -  Not done in this run

     Representation   103      1 modes -  Not done in this run

     Representation   104      1 modes -  Not done in this run

     Representation   105      1 modes -  Not done in this run

     Representation   106      1 modes -  Not done in this run

     Representation   107      1 modes -  Not done in this run

     Representation   108      1 modes -  Not done in this run

     Compute atoms:     4,



     Alpha used in Ewald sum =   2.1000
     PHONON       :  29m47.48s CPU   4m47.01s WALL


     Electric Fields Calculation

      iter #   1 total cpu time :   384.0 secs   av.it.:   7.2
      thresh= 1.000E-02 alpha_mix =  0.700 |ddv_scf|^2 =  5.034E-09

      iter #   2 total cpu time :   430.2 secs   av.it.:  16.3
      thresh= 7.095E-06 alpha_mix =  0.700 |ddv_scf|^2 =  2.760E-09

      iter #   3 total cpu time :   475.4 secs   av.it.:  15.8
      thresh= 5.254E-06 alpha_mix =  0.700 |ddv_scf|^2 =  3.665E-10

      iter #   4 total cpu time :   519.5 secs   av.it.:  15.7
      thresh= 1.914E-06 alpha_mix =  0.700 |ddv_scf|^2 =  5.651E-12

      iter #   5 total cpu time :   563.9 secs   av.it.:  15.7
      thresh= 2.377E-07 alpha_mix =  0.700 |ddv_scf|^2 =  1.998E-12

      iter #   6 total cpu time :   608.6 secs   av.it.:  15.7
      thresh= 1.413E-07 alpha_mix =  0.700 |ddv_scf|^2 =  4.720E-14

      iter #   7 total cpu time :   653.3 secs   av.it.:  15.7
      thresh= 2.173E-08 alpha_mix =  0.700 |ddv_scf|^2 =  2.201E-15

     End of electric fields calculation

          Dielectric constant in cartesian axis 

          (       2.481386441       0.000000000       0.000000000 )
          (       0.000000000       2.485821219      -0.001416775 )
          (       0.000000000      -0.001416766       2.515086845 )

          Effective charges (d Force / dE) in cartesian axis

           atom      1   Si 
      Ex  (        2.96240        0.00000        0.00000 )
      Ey  (        0.00000        3.60266        0.34174 )
      Ez  (        0.00000       -0.28351        3.39191 )
           atom      2   Si 
      Ex  (        2.96240        0.00000        0.00000 )
      Ey  (        0.00000        3.60266        0.34174 )
      Ez  (        0.00000       -0.28351        3.39191 )
           atom      3   Si 
      Ex  (        2.95451        0.00000        0.00000 )
      Ey  (        0.00000        3.65453        0.27804 )
      Ez  (        0.00000       -0.26764        3.42771 )
           atom      4   Si 
      Ex  (        2.95451        0.00000        0.00000 )
      Ey  (        0.00000        3.65453        0.27804 )
      Ez  (        0.00000       -0.26764        3.42771 )
           atom      5   O  
      Ex  (       -1.26856       -0.50963        0.31410 )
      Ey  (       -0.46216       -1.92693        0.67257 )
      Ez  (        0.27031        0.72301       -1.65286 )
           atom      6   O  
      Ex  (       -1.26856       -0.50964        0.31410 )
      Ey  (       -0.46216       -1.92693        0.67257 )
      Ez  (        0.27031        0.72301       -1.65286 )
           atom      7   O  
      Ex  (       -1.25802       -0.51117        0.32988 )
      Ey  (       -0.45527       -1.95967        0.71470 )
      Ez  (        0.27221        0.74498       -1.67380 )
           atom      8   O  
      Ex  (       -1.25802       -0.51117        0.32988 )
      Ey  (       -0.45527       -1.95967        0.71470 )
      Ez  (        0.27221        0.74497       -1.67379 )
           atom      9   O  
      Ex  (       -1.34747       -0.49839       -0.43996 )
      Ey  (       -0.54658       -1.82985       -0.61703 )
      Ez  (       -0.49947       -0.59222       -1.66360 )
           atom     10   O  
      Ex  (       -1.34747       -0.49839       -0.43996 )
      Ey  (       -0.54658       -1.82985       -0.61703 )
      Ez  (       -0.49947       -0.59222       -1.66360 )
           atom     11   O  
      Ex  (       -1.35436       -0.50642       -0.43690 )
      Ey  (       -0.56672       -1.85588       -0.62003 )
      Ez  (       -0.49352       -0.59661       -1.64794 )
           atom     12   O  
      Ex  (       -1.35436       -0.50642       -0.43690 )
      Ey  (       -0.56672       -1.85588       -0.62003 )
      Ez  (       -0.49351       -0.59661       -1.64793 )
           atom     13   Si 
      Ex  (        3.46070        0.27451       -0.25608 )
      Ey  (        0.28124        3.14968       -0.16260 )
      Ez  (        0.21946        0.11531        3.42968 )
           atom     14   Si 
      Ex  (        3.46070        0.27451       -0.25609 )
      Ey  (        0.28124        3.14968       -0.16260 )
      Ez  (        0.21947        0.11531        3.42968 )
           atom     15   Si 
      Ex  (        3.46972        0.27724       -0.26090 )
      Ey  (        0.29276        3.12101       -0.15639 )
      Ez  (        0.22364        0.15639        3.40614 )
           atom     16   Si 
      Ex  (        3.46972        0.27724       -0.26090 )
      Ey  (        0.29276        3.12101       -0.15639 )
      Ez  (        0.22364        0.15639        3.40614 )
           atom     17   O  
      Ex  (       -2.18017       -0.07663       -0.77500 )
      Ey  (       -0.03253       -1.01746       -0.07145 )
      Ez  (       -0.76531       -0.13881       -1.65654 )
           atom     18   O  
      Ex  (       -2.18016       -0.07663       -0.77500 )
      Ey  (       -0.03253       -1.01746       -0.07145 )
      Ez  (       -0.76531       -0.13881       -1.65654 )
           atom     19   O  
      Ex  (       -2.19213       -0.08299       -0.77171 )
      Ey  (       -0.03250       -1.01368       -0.06800 )
      Ez  (       -0.77461       -0.13817       -1.66640 )
           atom     20   O  
      Ex  (       -2.19213       -0.08299       -0.77171 )
      Ey  (       -0.03250       -1.01368       -0.06800 )
      Ez  (       -0.77461       -0.13817       -1.66640 )
           atom     21   O  
      Ex  (       -2.18017        0.07663        0.77500 )
      Ey  (        0.03253       -1.01746       -0.07145 )
      Ez  (        0.76531       -0.13881       -1.65654 )
           atom     22   O  
      Ex  (       -2.18016        0.07663        0.77500 )
      Ey  (        0.03253       -1.01746       -0.07145 )
      Ez  (        0.76531       -0.13881       -1.65654 )
           atom     23   O  
      Ex  (       -2.19213        0.08299        0.77171 )
      Ey  (        0.03250       -1.01368       -0.06800 )
      Ez  (        0.77461       -0.13817       -1.66640 )
           atom     24   O  
      Ex  (       -2.19213        0.08299        0.77171 )
      Ey  (        0.03250       -1.01368       -0.06800 )
      Ez  (        0.77461       -0.13817       -1.66640 )
           atom     25   Si 
      Ex  (        3.46070       -0.27451        0.25608 )
      Ey  (       -0.28124        3.14968       -0.16260 )
      Ez  (       -0.21946        0.11531        3.42968 )
           atom     26   Si 
      Ex  (        3.46070       -0.27451        0.25609 )
      Ey  (       -0.28124        3.14968       -0.16260 )
      Ez  (       -0.21947        0.11531        3.42968 )
           atom     27   Si 
      Ex  (        3.46972       -0.27724        0.26090 )
      Ey  (       -0.29276        3.12101       -0.15639 )
      Ez  (       -0.22364        0.15639        3.40614 )
           atom     28   Si 
      Ex  (        3.46972       -0.27724        0.26090 )
      Ey  (       -0.29276        3.12101       -0.15639 )
      Ez  (       -0.22364        0.15639        3.40614 )
           atom     29   O  
      Ex  (       -1.34747        0.49839        0.43996 )
      Ey  (        0.54658       -1.82985       -0.61703 )
      Ez  (        0.49947       -0.59222       -1.66360 )
           atom     30   O  
      Ex  (       -1.34747        0.49839        0.43996 )
      Ey  (        0.54658       -1.82985       -0.61703 )
      Ez  (        0.49947       -0.59222       -1.66360 )
           atom     31   O  
      Ex  (       -1.35436        0.50642        0.43690 )
      Ey  (        0.56672       -1.85588       -0.62003 )
      Ez  (        0.49352       -0.59661       -1.64794 )
           atom     32   O  
      Ex  (       -1.35436        0.50642        0.43690 )
      Ey  (        0.56672       -1.85588       -0.62003 )
      Ez  (        0.49351       -0.59661       -1.64793 )
           atom     33   O  
      Ex  (       -1.26856        0.50963       -0.31410 )
      Ey  (        0.46216       -1.92693        0.67257 )
      Ez  (       -0.27031        0.72301       -1.65286 )
           atom     34   O  
      Ex  (       -1.26856        0.50964       -0.31410 )
      Ey  (        0.46216       -1.92693        0.67257 )
      Ez  (       -0.27031        0.72301       -1.65286 )
           atom     35   O  
      Ex  (       -1.25802        0.51117       -0.32988 )
      Ey  (        0.45527       -1.95967        0.71470 )
      Ez  (       -0.27221        0.74498       -1.67380 )
           atom     36   O  
      Ex  (       -1.25802        0.51117       -0.32988 )
      Ey  (        0.45527       -1.95967        0.71470 )
      Ez  (       -0.27221        0.74497       -1.67379 )


     Representation # 10 mode #  10

     Self-consistent Calculation

      iter #   1 total cpu time :  1187.0 secs   av.it.:   5.0
      thresh= 1.000E-02 alpha_mix =  0.700 |ddv_scf|^2 =  2.417E-08

      iter #   2 total cpu time :  1202.5 secs   av.it.:  14.8
      thresh= 1.555E-05 alpha_mix =  0.700 |ddv_scf|^2 =  2.221E-08

      iter #   3 total cpu time :  1217.3 secs   av.it.:  14.0
      thresh= 1.490E-05 alpha_mix =  0.700 |ddv_scf|^2 =  4.278E-10

      iter #   4 total cpu time :  1232.1 secs   av.it.:  14.5
      thresh= 2.068E-06 alpha_mix =  0.700 |ddv_scf|^2 =  2.504E-11

      iter #   5 total cpu time :  1247.2 secs   av.it.:  14.9
      thresh= 5.004E-07 alpha_mix =  0.700 |ddv_scf|^2 =  3.589E-12

      iter #   6 total cpu time :  1262.3 secs   av.it.:  14.8
      thresh= 1.894E-07 alpha_mix =  0.700 |ddv_scf|^2 =  2.686E-13

      iter #   7 total cpu time :  1277.5 secs   av.it.:  14.8
      thresh= 5.182E-08 alpha_mix =  0.700 |ddv_scf|^2 =  3.960E-14

      iter #   8 total cpu time :  1292.8 secs   av.it.:  14.5
      thresh= 1.990E-08 alpha_mix =  0.700 |ddv_scf|^2 =  2.446E-15

     End of self-consistent calculation

     Convergence has been achieved 

     Dynamical matrix:
        10    1 -0.011862  0.000001
        10    2  0.000000  0.000000
        10    3  0.000000  0.000000
        10    4 -0.011155 -0.000001
        10    5  0.000000  0.000000
        10    6  0.000000  0.000000
        10    7 -0.041731  0.000000
        10    8  0.000000  0.000000
        10    9  0.000000  0.000000
        10   10  0.917499  0.000000
        10   11  0.000000  0.000000
        10   12  0.000000  0.000000
        10   13  0.002363  0.000000
        10   14  0.020267  0.000002
        10   15 -0.002201  0.000000
        10   16  0.008734 -0.000001
        10   17 -0.000562 -0.000000
        10   18 -0.001194  0.000000
        10   19  0.016207 -0.000001
        10   20  0.002034  0.000000
        10   21 -0.002353  0.000001
        10   22 -0.220787  0.000006
        10   23 -0.187088 -0.000004
        10   24  0.105580 -0.000003
        10   25  0.007984 -0.000001
        10   26  0.000953  0.000000
        10   27  0.001985 -0.000001
        10   28  0.001469 -0.000000
        10   29  0.013975 -0.000001
        10   30 -0.003632  0.000001
        10   31 -0.215336 -0.000000
        10   32 -0.095580 -0.000006
        10   33 -0.192962 -0.000002
        10   34  0.017032 -0.000001
        10   35  0.002587 -0.000001
        10   36  0.002729 -0.000001
        10   37 -0.029148  0.000000
        10   38  0.005976  0.000001
        10   39  0.000257  0.000000
        10   40  0.029807  0.000000
        10   41 -0.050520 -0.000000
        10   42  0.053357  0.000000
        10   43 -0.016163  0.000001
        10   44 -0.078085 -0.000002
        10   45 -0.045232  0.000001
        10   46 -0.030790 -0.000002
        10   47  0.005808  0.000000
        10   48  0.007434  0.000001
        10   49 -0.039853 -0.000003
        10   50 -0.010178  0.000000
        10   51 -0.039236 -0.000003
        10   52  0.018327  0.000001
        10   53  0.000705  0.000002
        10   54  0.007024  0.000003
        10   55  0.016104 -0.000003
        10   56  0.009788 -0.000000
        10   57  0.009182  0.000000
        10   58  0.007591  0.000003
        10   59 -0.009911  0.000000
        10   60  0.006561  0.000002
        10   61 -0.039853 -0.000003
        10   62  0.010178 -0.000000
        10   63  0.039236  0.000003
        10   64  0.018327  0.000001
        10   65 -0.000705 -0.000002
        10   66 -0.007024 -0.000003
        10   67  0.016104 -0.000003
        10   68 -0.009788  0.000000
        10   69 -0.009182 -0.000000
        10   70  0.007591  0.000003
        10   71  0.009911 -0.000000
        10   72 -0.006561 -0.000002
        10   73 -0.029148  0.000000
        10   74 -0.005976 -0.000001
        10   75 -0.000257 -0.000000
        10   76  0.029807  0.000000
        10   77  0.050520  0.000000
        10   78 -0.053357 -0.000000
        10   79 -0.016163  0.000001
        10   80  0.078085  0.000002
        10   81  0.045232 -0.000001
        10   82 -0.030790 -0.000002
        10   83 -0.005808 -0.000000
        10   84 -0.007434 -0.000001
        10   85  0.007984 -0.000001
        10   86 -0.000953 -0.000000
        10   87 -0.001985  0.000001
        10   88  0.001469 -0.000000
        10   89 -0.013975  0.000001
        10   90  0.003632 -0.000001
        10   91 -0.215336 -0.000000
        10   92  0.095580  0.000006
        10   93  0.192962  0.000002
        10   94  0.017032 -0.000001
        10   95 -0.002587  0.000001
        10   96 -0.002729  0.000001
        10   97  0.002363  0.000000
        10   98 -0.020267 -0.000002
        10   99  0.002201 -0.000000
        10  100  0.008734 -0.000001
        10  101  0.000562  0.000000
        10  102  0.001194 -0.000000
        10  103  0.016207 -0.000001
        10  104 -0.002034 -0.000000
        10  105  0.002353 -0.000001
        10  106 -0.220787  0.000006
        10  107  0.187088  0.000004
        10  108 -0.105580  0.000003
 
     PHONON       :      2h 0m CPU  21m36.66s WALL

     INITIALIZATION: 
     phq_setup    :      2.26s CPU      0.90s WALL (       1 calls)
     phq_init     :   1594.39s CPU    243.64s WALL (       1 calls)
 
     phq_init     :   1594.39s CPU    243.64s WALL (       1 calls)
     set_drhoc    :      4.71s CPU      3.69s WALL (       3 calls)
     init_vloc    :      1.65s CPU      0.61s WALL (       2 calls)
     init_us_1    :      3.39s CPU      0.70s WALL (       2 calls)
     newd         :      3.42s CPU      0.71s WALL (       2 calls)
     dvanqq       :    609.07s CPU     85.05s WALL (       1 calls)
     drho         :    960.51s CPU    141.27s WALL (       1 calls)
     cmpt_qdipol  :      0.05s CPU      0.01s WALL (       1 calls)
 
     DIELECTRIC CONSTANT AND EFFECTIVE CHARGES:
     solve_e      :   2414.23s CPU    366.43s WALL (       1 calls)
     dielec       :      0.53s CPU      0.09s WALL (       1 calls)
     zstar_eu     :   2281.36s CPU    522.63s WALL (       1 calls)
 
     DYNAMICAL MATRIX:
     dynmat0      :     21.08s CPU     15.32s WALL (       1 calls)
     phqscf       :    759.15s CPU    118.62s WALL (       1 calls)
     dynmatrix    :      1.87s CPU      1.88s WALL (       1 calls)
 
     phqscf       :    759.15s CPU    118.62s WALL (       1 calls)
     solve_linter :    754.58s CPU    117.48s WALL (       1 calls)
     drhodv       :      3.39s CPU      0.49s WALL (       1 calls)
 
     dynmat0      :     21.08s CPU     15.32s WALL (       1 calls)
     dynmat_us    :      6.75s CPU      2.78s WALL (       1 calls)
     d2ionq       :      3.66s CPU      3.66s WALL (       1 calls)
     dynmatcc     :      5.68s CPU      4.41s WALL (       1 calls)
 
     dynmat_us    :      6.75s CPU      2.78s WALL (       1 calls)
     addusdynmat  :      0.02s CPU      0.02s WALL (       1 calls)
 
     phqscf       :    759.15s CPU    118.62s WALL (       1 calls)
     solve_linter :    754.58s CPU    117.48s WALL (       1 calls)
 
     solve_linter :    754.58s CPU    117.48s WALL (       1 calls)
     dvqpsi_us    :    747.68s CPU    275.55s WALL (     218 calls)
     ortho        :     29.17s CPU      4.80s WALL (      64 calls)
     cgsolve      :   2611.63s CPU    394.87s WALL (      64 calls)
     incdrhoscf   :     93.40s CPU     12.95s WALL (      64 calls)
     addusddens   :    728.19s CPU    103.17s WALL (     116 calls)
     vpsifft      :     20.70s CPU      2.83s WALL (      14 calls)
     dv_of_drho   :      8.59s CPU      1.19s WALL (      32 calls)
     mix_pot      :     11.26s CPU      3.06s WALL (      15 calls)
     psymdvscf    :      6.93s CPU      2.66s WALL (       8 calls)
     newdq        :    166.92s CPU     23.63s WALL (      15 calls)
     adddvscf     :     23.44s CPU      3.40s WALL (      50 calls)
     drhodvus     :      2.11s CPU      0.34s WALL (       1 calls)
 
     dvqpsi_us    :    747.68s CPU    275.55s WALL (     218 calls)
     dvqpsi_us_on :    490.79s CPU    240.73s WALL (     218 calls)
 
     cgsolve      :   2611.63s CPU    394.87s WALL (      64 calls)
     ch_psi       :   2583.29s CPU    390.73s WALL (    1428 calls)
 
     ch_psi       :   2583.29s CPU    390.73s WALL (    1428 calls)
     h_psi        :   1613.14s CPU    231.20s WALL (    1461 calls)
     last         :    571.52s CPU     94.24s WALL (    1428 calls)
 
     h_psi        :   1613.14s CPU    231.20s WALL (    1461 calls)
     add_vuspsi   :    449.60s CPU     74.05s WALL (    1461 calls)
 
     incdrhoscf   :     93.40s CPU     12.95s WALL (      64 calls)
     addusdbec    :     16.21s CPU      2.61s WALL (     280 calls)
 
     drhodvus     :      2.11s CPU      0.34s WALL (       1 calls)
 
      General routines
     calbec       :    448.69s CPU     72.37s WALL (    8457 calls)
     fft          :     64.04s CPU     10.27s WALL (    3771 calls)
     ffts         :     21.12s CPU      3.48s WALL (     605 calls)
     fftw         :   1441.18s CPU    192.31s WALL (  291318 calls)
     davcio       :     18.85s CPU      3.69s WALL (    2640 calls)
     write_rec    :      8.69s CPU      1.95s WALL (      16 calls)
 
 
     PHONON       :      2h 0m CPU  21m36.66s WALL

 
   This run was terminated on:  11:59:44  14Oct2019            

=------------------------------------------------------------------------------=
   JOB DONE.
=------------------------------------------------------------------------------=
