<PP_INFO>
Generated using Vanderbilt code, version   7  3  4                              
Author: unknown    Generation date:   18    6 2003                              
Automatically converted from original format                                    
    1        The Pseudo was generated with a Scalar-Relativistic Calculation
  1.70000000000E+00    Local Potential cutoff radius
nl pn  l   occ               Rcut            Rcut US             E pseu
4S  4  0  2.00     10.00000000000      1.80000000000     -4.72836512000
4P  4  1  6.00     10.00000000000      1.80000000000     -3.09666190300
4D  4  2  1.00     10.00000000000      1.70000000000     -0.90140476700
5S  5  0  2.00     10.00000000000      1.80000000000     -0.82716628300
</PP_INFO>


<PP_HEADER>
   0                   Version Number
  zi                   Element
   US                  Ultrasoft pseudopotential
    F                  Nonlinear Core Correction
 SLA  PZ   NOGX NOGC   PZ   Exchange-Correlation functional
   12.00000000000      Z valence
  -93.17642084320      Total energy
  0.0000000  0.0000000 Suggested cutoff for wfc and rho
    2                  Max angular momentum component
  887                  Number of points in mesh
    4    6             Number of Wavefunctions, Number of Projectors
 Wavefunctions         nl  l   occ
                       4S  0  2.00
                       4P  1  6.00
                       4D  2  1.00
                       5S  0  2.00
</PP_HEADER>


<PP_MESH>
  <PP_R>
  0.00000000000E+00  1.05927022700E-06  2.13664720020E-06  3.23244042915E-06
  4.34696471405E-06  5.48054023615E-06  6.63349264977E-06  7.80615317582E-06
  8.99885869699E-06  1.02119518545E-05  1.14457811465E-05  1.27007010283E-05
  1.39770720141E-05  1.52752607806E-05  1.65956402723E-05  1.79385898086E-05
  1.93044951931E-05  2.06937488238E-05  2.21067498065E-05  2.35439040689E-05
  2.50056244778E-05  2.64923309570E-05  2.80044506087E-05  2.95424178355E-05
  3.11066744655E-05  3.26976698796E-05  3.43158611399E-05  3.59617131214E-05
  3.76356986456E-05  3.93382986160E-05  4.10700021568E-05  4.28313067528E-05
  4.46227183928E-05  4.64447517147E-05  4.82979301533E-05  5.01827860910E-05
  5.20998610105E-05  5.40497056502E-05  5.60328801628E-05  5.80499542759E-05
  6.01015074559E-05  6.21881290744E-05  6.43104185773E-05  6.64689856574E-05
  6.86644504292E-05  7.08974436073E-05  7.31686066873E-05  7.54785921305E-05
  7.78280635510E-05  8.02176959065E-05  8.26481756922E-05  8.51202011377E-05
  8.76344824082E-05  9.01917418081E-05  9.27927139885E-05  9.54381461584E-05
  9.81287982992E-05  1.00865443383E-04  1.03648867596E-04  1.06479870560E-04
  1.09359265570E-04  1.12287879819E-04  1.15266554641E-04  1.18296145752E-04
  1.21377523495E-04  1.24511573090E-04  1.27699194888E-04  1.30941304633E-04
  1.34238833720E-04  1.37592729464E-04  1.41003955374E-04  1.44473491432E-04
  1.48002334365E-04  1.51591497944E-04  1.55242013265E-04  1.58954929051E-04
  1.62731311951E-04  1.66572246846E-04  1.70478837162E-04  1.74452205188E-04
  1.78493492395E-04  1.82603859766E-04  1.86784488131E-04  1.91036578504E-04
  1.95361352427E-04  1.99760052325E-04  2.04233941859E-04  2.08784306290E-04
  2.13412452851E-04  2.18119711118E-04  2.22907433396E-04  2.27776995104E-04
  2.32729795174E-04  2.37767256448E-04  2.42890826093E-04  2.48101976010E-04
  2.53402203263E-04  2.58793030503E-04  2.64276006412E-04  2.69852706141E-04
  2.75524731769E-04  2.81293712760E-04  2.87161306429E-04  2.93129198423E-04
  2.99199103202E-04  3.05372764532E-04  3.11651955987E-04  3.18038481455E-04
  3.24534175664E-04  3.31140904700E-04  3.37860566548E-04  3.44695091637E-04
  3.51646443395E-04  3.58716618809E-04  3.65907649005E-04  3.73221599826E-04
  3.80660572429E-04  3.88226703886E-04  3.95922167802E-04  4.03749174933E-04
  4.11709973828E-04  4.19806851469E-04  4.28042133934E-04  4.36418187059E-04
  4.44937417123E-04  4.53602271535E-04  4.62415239540E-04  4.71378852934E-04
  4.80495686789E-04  4.89768360196E-04  4.99199537013E-04  5.08791926635E-04
  5.18548284771E-04  5.28471414233E-04  5.38564165745E-04  5.48829438758E-04
  5.59270182287E-04  5.69889395755E-04  5.80690129857E-04  5.91675487435E-04
  6.02848624369E-04  6.14212750486E-04  6.25771130479E-04  6.37527084847E-04
  6.49483990848E-04  6.61645283470E-04  6.74014456416E-04  6.86595063112E-04
  6.99390717722E-04  7.12405096189E-04  7.25641937293E-04  7.39105043722E-04
  7.52798283167E-04  7.66725589429E-04  7.80890963555E-04  7.95298474981E-04
  8.09952262709E-04  8.24856536487E-04  8.40015578024E-04  8.55433742220E-04
  8.71115458415E-04  8.87065231663E-04  9.03287644025E-04  9.19787355887E-04
  9.36569107295E-04  9.53637719322E-04  9.70998095451E-04  9.88655222982E-04
  1.00661417447E-03  1.02488010916E-03  1.04345827452E-03  1.06235400768E-03
  1.08157273703E-03  1.10111998374E-03  1.12100136336E-03  1.14122258740E-03
  1.16178946506E-03  1.18270790478E-03  1.20398391604E-03  1.22562361101E-03
  1.24763320637E-03  1.27001902505E-03  1.29278749805E-03  1.31594516633E-03
  1.33949868262E-03  1.36345481340E-03  1.38782044081E-03  1.41260256461E-03
  1.43780830423E-03  1.46344490080E-03  1.48951971920E-03  1.51604025023E-03
  1.54301411273E-03  1.57044905576E-03  1.59835296086E-03  1.62673384427E-03
  1.65559985927E-03  1.68495929852E-03  1.71482059640E-03  1.74519233149E-03
  1.77608322901E-03  1.80750216332E-03  1.83945816045E-03  1.87196040076E-03
  1.90501822150E-03  1.93864111956E-03  1.97283875413E-03  2.00762094954E-03
  2.04299769803E-03  2.07897916267E-03  2.11557568023E-03  2.15279776419E-03
  2.19065610772E-03  2.22916158680E-03  2.26832526330E-03  2.30815838820E-03
  2.34867240478E-03  2.38987895193E-03  2.43178986749E-03  2.47441719166E-03
  2.51777317045E-03  2.56187025919E-03  2.60672112611E-03  2.65233865602E-03
  2.69873595393E-03  2.74592634889E-03  2.79392339780E-03  2.84274088928E-03
  2.89239284764E-03  2.94289353694E-03  2.99425746503E-03  3.04649938780E-03
  3.09963431332E-03  3.15367750625E-03  3.20864449213E-03  3.26455106192E-03
  3.32141327650E-03  3.37924747128E-03  3.43807026090E-03  3.49789854402E-03
  3.55874950814E-03  3.62064063457E-03  3.68358970343E-03  3.74761479877E-03
  3.81273431376E-03  3.87896695598E-03  3.94633175278E-03  4.01484805677E-03
  4.08453555135E-03  4.15541425639E-03  4.22750453398E-03  4.30082709425E-03
  4.37540300136E-03  4.45125367953E-03  4.52840091918E-03  4.60686688322E-03
  4.68667411341E-03  4.76784553682E-03  4.85040447243E-03  4.93437463782E-03
  5.01978015600E-03  5.10664556232E-03  5.19499581153E-03  5.28485628495E-03
  5.37625279775E-03  5.46921160639E-03  5.56375941612E-03  5.65992338871E-03
  5.75773115020E-03  5.85721079887E-03  5.95839091330E-03  6.06130056058E-03
  6.16596930465E-03  6.27242721483E-03  6.38070487441E-03  6.49083338947E-03
  6.60284439780E-03  6.71677007798E-03  6.83264315868E-03  6.95049692797E-03
  7.07036524298E-03  7.19228253953E-03  7.31628384213E-03  7.44240477393E-03
  7.57068156705E-03  7.70115107292E-03  7.83385077291E-03  7.96881878907E-03
  8.10609389510E-03  8.24571552749E-03  8.38772379683E-03  8.53215949934E-03
  8.67906412861E-03  8.82847988750E-03  8.98044970025E-03  9.13501722487E-03
  9.29222686560E-03  9.45212378574E-03  9.61475392057E-03  9.78016399059E-03
  9.94840151491E-03  1.01195148249E-02  1.02935530781E-02  1.04705662724E-02
  1.06506052602E-02  1.08337217632E-02  1.10199683873E-02  1.12093986375E-02
  1.14020669334E-02  1.15980286250E-02  1.17973400082E-02  1.20000583414E-02
  1.22062418615E-02  1.24159498011E-02  1.26292424053E-02  1.28461809489E-02
  1.30668277542E-02  1.32912462086E-02  1.35195007834E-02  1.37516570515E-02
  1.39877817070E-02  1.42279425840E-02  1.44722086760E-02  1.47206501559E-02
  1.49733383962E-02  1.52303459893E-02  1.54917467685E-02  1.57576158293E-02
  1.60280295506E-02  1.63030656170E-02  1.65828030412E-02  1.68673221862E-02
  1.71567047890E-02  1.74510339834E-02  1.77503943247E-02  1.80548718132E-02
  1.83645539195E-02  1.86795296091E-02  1.89998893686E-02  1.93257252311E-02
  1.96571308029E-02  1.99942012905E-02  2.03370335276E-02  2.06857260033E-02
  2.10403788903E-02  2.14010940734E-02  2.17679751792E-02  2.21411276054E-02
  2.25206585516E-02  2.29066770496E-02  2.32992939951E-02  2.36986221794E-02
  2.41047763217E-02  2.45178731022E-02  2.49380311956E-02  2.53653713052E-02
  2.58000161977E-02  2.62420907380E-02  2.66917219255E-02  2.71490389307E-02
  2.76141731319E-02  2.80872581531E-02  2.85684299025E-02  2.90578266114E-02
  2.95555888741E-02  3.00618596879E-02  3.05767844948E-02  3.11005112226E-02
  3.16331903279E-02  3.21749748390E-02  3.27260204003E-02  3.32864853164E-02
  3.38565305980E-02  3.44363200082E-02  3.50260201092E-02  3.56258003104E-02
  3.62358329171E-02  3.68562931798E-02  3.74873593448E-02  3.81292127051E-02
  3.87820376529E-02  3.94460217321E-02  4.01213556924E-02  4.08082335443E-02
  4.15068526144E-02  4.22174136026E-02  4.29401206392E-02  4.36751813439E-02
  4.44228068855E-02  4.51832120424E-02  4.59566152642E-02  4.67432387347E-02
  4.75433084356E-02  4.83570542114E-02  4.91847098356E-02  5.00265130776E-02
  5.08827057713E-02  5.17535338840E-02  5.26392475881E-02  5.35401013318E-02
  5.44563539130E-02  5.53882685533E-02  5.63361129739E-02  5.73001594719E-02
  5.82806849994E-02  5.92779712424E-02  6.02923047019E-02  6.13239767762E-02
  6.23732838449E-02  6.34405273534E-02  6.45260139003E-02  6.56300553248E-02
  6.67529687966E-02  6.78950769071E-02  6.90567077617E-02  7.02381950747E-02
  7.14398782643E-02  7.26621025510E-02  7.39052190561E-02  7.51695849030E-02
  7.64555633194E-02  7.77635237422E-02  7.90938419230E-02  8.04469000364E-02
  8.18230867900E-02  8.32227975355E-02  8.46464343827E-02  8.60944063150E-02
  8.75671293067E-02  8.90650264425E-02  9.05885280394E-02  9.21380717699E-02
  9.37141027879E-02  9.53170738566E-02  9.69474454786E-02  9.86056860281E-02
  1.00292271886E-01  1.02007687574E-01  1.03752425900E-01  1.05526988093E-01
  1.07331883950E-01  1.09167631982E-01  1.11034759566E-01  1.12933803089E-01
  1.14865308111E-01  1.16829829516E-01  1.18827931672E-01  1.20860188597E-01
  1.22927184117E-01  1.25029512041E-01  1.27167776326E-01  1.29342591256E-01
  1.31554581611E-01  1.33804382855E-01  1.36092641311E-01  1.38420014351E-01
  1.40787170586E-01  1.43194790053E-01  1.45643564415E-01  1.48134197156E-01
  1.50667403789E-01  1.53243912053E-01  1.55864462131E-01  1.58529806855E-01
  1.61240711927E-01  1.63997956138E-01  1.66802331590E-01  1.69654643927E-01
  1.72555712563E-01  1.75506370919E-01  1.78507466661E-01  1.81559861946E-01
  1.84664433669E-01  1.87822073712E-01  1.91033689206E-01  1.94300202784E-01
  1.97622552853E-01  2.01001693859E-01  2.04438596565E-01  2.07934248326E-01
  2.11489653376E-01  2.15105833113E-01  2.18783826395E-01  2.22524689840E-01
  2.26329498125E-01  2.30199344297E-01  2.34135340089E-01  2.38138616235E-01
  2.42210322800E-01  2.46351629507E-01  2.50563726072E-01  2.54847822549E-01
  2.59205149677E-01  2.63636959231E-01  2.68144524384E-01  2.72729140072E-01
  2.77392123367E-01  2.82134813854E-01  2.86958574016E-01  2.91864789626E-01
  2.96854870144E-01  3.01930249125E-01  3.07092384626E-01  3.12342759629E-01
  3.17682882465E-01  3.23114287249E-01  3.28638534317E-01  3.34257210679E-01
  3.39971930472E-01  3.45784335424E-01  3.51696095327E-01  3.57708908515E-01
  3.63824502353E-01  3.70044633732E-01  3.76371089577E-01  3.82805687355E-01
  3.89350275602E-01  3.96006734451E-01  4.02776976174E-01  4.09662945731E-01
  4.16666621327E-01  4.23790014984E-01  4.31035173113E-01  4.38404177109E-01
  4.45899143944E-01  4.53522226777E-01  4.61275615572E-01  4.69161537728E-01
  4.77182258718E-01  4.85340082739E-01  4.93637353376E-01  5.02076454275E-01
  5.10659809827E-01  5.19389885862E-01  5.28269190364E-01  5.37300274183E-01
  5.46485731777E-01  5.55828201949E-01  5.65330368610E-01  5.74994961549E-01
  5.84824757217E-01  5.94822579522E-01  6.04991300647E-01  6.15333841867E-01
  6.25853174396E-01  6.36552320233E-01  6.47434353037E-01  6.58502399004E-01
  6.69759637771E-01  6.81209303323E-01  6.92854684928E-01  7.04699128080E-01
  7.16746035457E-01  7.28998867903E-01  7.41461145419E-01  7.54136448177E-01
  7.67028417546E-01  7.80140757139E-01  7.93477233878E-01  8.07041679073E-01
  8.20837989529E-01  8.34870128658E-01  8.49142127621E-01  8.63658086489E-01
  8.78422175415E-01  8.93438635836E-01  9.08711781690E-01  9.24246000658E-01
  9.40045755419E-01  9.56115584938E-01  9.72460105765E-01  9.89084013364E-01
  1.00599208346E+00  1.02318917342E+00  1.04068022364E+00  1.05847025894E+00
  1.07656439008E+00  1.09496781513E+00  1.11368582104E+00  1.13272378515E+00
  1.15208717668E+00  1.17178155837E+00  1.19181258803E+00  1.21218602018E+00
  1.23290770772E+00  1.25398360359E+00  1.27541976249E+00  1.29722234261E+00
  1.31939760740E+00  1.34195192740E+00  1.36489178202E+00  1.38822376145E+00
  1.41195456849E+00  1.43609102057E+00  1.46064005161E+00  1.48560871407E+00
  1.51100418097E+00  1.53683374794E+00  1.56310483531E+00  1.58982499025E+00
  1.61700188894E+00  1.64464333879E+00  1.67275728065E+00  1.70135179111E+00
  1.73043508482E+00  1.76001551685E+00  1.79010158508E+00  1.82070193266E+00
  1.85182535047E+00  1.88348077967E+00  1.91567731426E+00  1.94842420367E+00
  1.98173085546E+00  2.01560683797E+00  2.05006188313E+00  2.08510588920E+00
  2.12074892364E+00  2.15700122602E+00  2.19387321090E+00  2.23137547092E+00
  2.26951877972E+00  2.30831409516E+00  2.34777256237E+00  2.38790551702E+00
  2.42872448851E+00  2.47024120335E+00  2.51246758849E+00  2.55541577475E+00
  2.59909810031E+00  2.64352711427E+00  2.68871558022E+00  2.73467647992E+00
  2.78142301707E+00  2.82896862102E+00  2.87732695072E+00  2.92651189858E+00
  2.97653759448E+00  3.02741840983E+00  3.07916896171E+00  3.13180411705E+00
  3.18533899691E+00  3.23978898083E+00  3.29516971123E+00  3.35149709794E+00
  3.40878732270E+00  3.46705684390E+00  3.52632240125E+00  3.58660102058E+00
  3.64791001879E+00  3.71026700876E+00  3.77368990445E+00  3.83819692602E+00
  3.90380660510E+00  3.97053779008E+00  4.03840965154E+00  4.10744168774E+00
  4.17765373026E+00  4.24906594966E+00  4.32169886128E+00  4.39557333117E+00
  4.47071058201E+00  4.54713219930E+00  4.62486013747E+00  4.70391672628E+00
  4.78432467713E+00  4.86610708969E+00  4.94928745845E+00  5.03388967953E+00
  5.11993805751E+00  5.20745731242E+00  5.29647258685E+00  5.38700945316E+00
  5.47909392085E+00  5.57275244400E+00  5.66801192889E+00  5.76489974173E+00
  5.86344371651E+00  5.96367216302E+00  6.06561387493E+00  6.16929813814E+00
  6.27475473913E+00  6.38201397353E+00  6.49110665485E+00  6.60206412331E+00
  6.71491825484E+00  6.82970147024E+00  6.94644674452E+00  7.06518761634E+00
  7.18595819764E+00  7.30879318347E+00  7.43372786196E+00  7.56079812442E+00
  7.69004047568E+00  7.82149204456E+00  7.95519059455E+00  8.09117453466E+00
  8.22948293045E+00  8.37015551523E+00  8.51323270154E+00  8.65875559266E+00
  8.80676599451E+00  8.95730642761E+00  9.11042013932E+00  9.26615111625E+00
  9.42454409688E+00  9.58564458447E+00  9.74949886005E+00  9.91615399580E+00
  1.00856578685E+01  1.02580591734E+01  1.04334074379E+01  1.06117530363E+01
  1.07931472039E+01  1.09776420515E+01  1.11652905811E+01  1.13561467004E+01
  1.15502652388E+01  1.17477019626E+01  1.19485135916E+01  1.21527578153E+01
  1.23604933088E+01  1.25717797507E+01  1.27866778395E+01  1.30052493112E+01
  1.32275569571E+01  1.34536646420E+01  1.36836373222E+01  1.39175410644E+01
  1.41554430647E+01  1.43974116676E+01  1.46435163861E+01  1.48938279213E+01
  1.51484181829E+01  1.54073603097E+01  1.56707286907E+01  1.59385989867E+01
  1.62110481515E+01  1.64881544545E+01  1.67699975031E+01  1.70566582653E+01
  1.73482190931E+01  1.76447637463E+01  1.79463774166E+01  1.82531467516E+01
  1.85651598802E+01  1.88825064379E+01  1.92052775920E+01  1.95335660686E+01
  1.98674661785E+01  2.02070738448E+01  2.05524866301E+01  2.09038037650E+01
  2.12611261760E+01  2.16245565150E+01  2.19941991883E+01  2.23701603873E+01
  2.27525481183E+01  2.31414722339E+01  2.35370444645E+01  2.39393784502E+01
  2.43485897740E+01  2.47647959942E+01  2.51881166789E+01  2.56186734399E+01
  2.60565899679E+01  2.65019920677E+01  2.69550076949E+01  2.74157669919E+01
  2.78844023261E+01  2.83610483273E+01  2.88458419266E+01  2.93389223960E+01
  2.98404313878E+01  3.03505129760E+01  3.08693136970E+01  3.13969825923E+01
  3.19336712509E+01  3.24795338531E+01  3.30347272147E+01  3.35994108320E+01
  3.41737469277E+01  3.47579004973E+01  3.53520393570E+01  3.59563341913E+01
  3.65709586024E+01  3.71960891601E+01  3.78319054522E+01  3.84785901364E+01
  3.91363289928E+01  3.98053109770E+01  4.04857282746E+01  4.11777763563E+01
  4.18816540341E+01  4.25975635185E+01  4.33257104764E+01  4.40663040903E+01
  4.48195571185E+01  4.55856859559E+01  4.63649106966E+01  4.71574551967E+01
  4.79635471390E+01  4.87834180980E+01  4.96173036069E+01  5.04654432247E+01
  5.13280806057E+01  5.22054635687E+01  5.30978441691E+01  5.40054787703E+01
  5.49286281184E+01  5.58675574162E+01  5.68225364000E+01  5.77938394167E+01
  5.87817455030E+01  5.97865384650E+01  6.08085069604E+01  6.18479445810E+01
  6.29051499371E+01  6.39804267432E+01  6.50740839057E+01  6.61864356111E+01
  6.73178014164E+01  6.84685063413E+01  6.96388809609E+01  7.08292615012E+01
  7.20399899356E+01  7.32714140828E+01  7.45238877072E+01  7.57977706203E+01
  7.70934287839E+01  7.84112344156E+01  7.97515660955E+01  8.11148088748E+01
  8.25013543868E+01  8.39116009593E+01  8.53459537288E+01  8.68048247571E+01
  8.82886331496E+01  8.97978051758E+01  9.13327743915E+01  9.28939817637E+01
  9.44818757971E+01  9.60969126630E+01  9.77395563301E+01  9.94102786982E+01
  1.01109559733E+02  1.02837887606E+02  1.04595758832E+02  1.06383678414E+02
  1.08202159985E+02  1.10051725961E+02  1.11932907686E+02  1.13846245587E+02
  1.15792289329E+02  1.17771597973E+02  1.19784740136E+02  1.21832294155E+02
  1.23914848252E+02  1.26033000705E+02  1.28187360018E+02  1.30378545096E+02
  1.32607185426E+02  1.34873921252E+02  1.37179403763E+02  1.39524295280E+02
  1.41909269445E+02  1.44335011415E+02  1.46802218059E+02  1.49311598156E+02
  1.51863872605E+02  1.54459774623E+02  1.57100049963E+02  1.59785457126E+02
  1.62516767576E+02  1.65294765966E+02  1.68120250362E+02  1.70994032470E+02
  1.73916937873E+02  1.76889806264E+02  1.79913491692E+02  1.82988862802E+02
  1.86116803089E+02  1.89298211150E+02  1.92534000942E+02  1.95825102044E+02
  1.99172459927E+02  2.02577036221E+02  2.06039808995E+02
  </PP_R>
  <PP_RAB>
  1.05031871893E-06  1.06827245159E-06  1.08653307825E-06  1.10510584484E-06
  1.12399608696E-06  1.14320923140E-06  1.16275079774E-06  1.18262639987E-06
  1.20284174769E-06  1.22340264866E-06  1.24431500955E-06  1.26558483805E-06
  1.28721824459E-06  1.30922144402E-06  1.33160075744E-06  1.35436261399E-06
  1.37751355271E-06  1.40106022441E-06  1.42500939361E-06  1.44936794043E-06
  1.47414286262E-06  1.49934127752E-06  1.52497042416E-06  1.55103766529E-06
  1.57755048953E-06  1.60451651350E-06  1.63194348401E-06  1.65983928031E-06
  1.68821191631E-06  1.71706954293E-06  1.74642045040E-06  1.77627307067E-06
  1.80663597982E-06  1.83751790053E-06  1.86892770458E-06  1.90087441538E-06
  1.93336721063E-06  1.96641542486E-06  2.00002855219E-06  2.03421624903E-06
  2.06898833682E-06  2.10435480493E-06  2.14032581346E-06  2.17691169617E-06
  2.21412296349E-06  2.25197030549E-06  2.29046459498E-06  2.32961689063E-06
  2.36943844013E-06  2.40994068344E-06  2.45113525608E-06  2.49303399245E-06
  2.53564892924E-06  2.57899230889E-06  2.62307658314E-06  2.66791441653E-06
  2.71351869010E-06  2.75990250508E-06  2.80707918665E-06  2.85506228775E-06
  2.90386559299E-06  2.95350312263E-06  3.00398913656E-06  3.05533813845E-06
  3.10756487985E-06  3.16068436451E-06  3.21471185263E-06  3.26966286525E-06
  3.32555318875E-06  3.38239887933E-06  3.44021626765E-06  3.49902196353E-06
  3.55883286071E-06  3.61966614171E-06  3.68153928275E-06  3.74447005878E-06
  3.80847654860E-06  3.87357714004E-06  3.93979053523E-06  4.00713575601E-06
  4.07563214934E-06  4.14529939293E-06  4.21615750081E-06  4.28822682916E-06
  4.36152808210E-06  4.43608231766E-06  4.51191095382E-06  4.58903577469E-06
  4.66747893674E-06  4.74726297517E-06  4.82841081038E-06  4.91094575459E-06
  4.99489151848E-06  5.08027221805E-06  5.16711238152E-06  5.25543695639E-06
  5.34527131660E-06  5.43664126983E-06  5.52957306488E-06  5.62409339928E-06
  5.72022942688E-06  5.81800876570E-06  5.91745950586E-06  6.01861021763E-06
  6.12148995964E-06  6.22612828727E-06  6.33255526107E-06  6.44080145546E-06
  6.55089796747E-06  6.66287642570E-06  6.77676899940E-06  6.89260840769E-06
  7.01042792900E-06  7.13026141060E-06  7.25214327833E-06  7.37610854648E-06
  7.50219282789E-06  7.63043234412E-06  7.76086393590E-06  7.89352507372E-06
  8.02845386855E-06  8.16568908281E-06  8.30527014153E-06  8.44723714366E-06
  8.59163087355E-06  8.73849281273E-06  8.88786515181E-06  9.03979080255E-06
  9.19431341027E-06  9.35147736631E-06  9.51132782084E-06  9.67391069580E-06
  9.83927269810E-06  1.00074613331E-05  1.01785249180E-05  1.03525125962E-05
  1.05294743509E-05  1.07094610199E-05  1.08925243097E-05  1.10787168110E-05
  1.12680920133E-05  1.14607043204E-05  1.16566090660E-05  1.18558625299E-05
  1.20585219536E-05  1.22646455574E-05  1.24742925565E-05  1.26875231785E-05
  1.29043986803E-05  1.31249813662E-05  1.33493346052E-05  1.35775228498E-05
  1.38096116540E-05  1.40456676923E-05  1.42857587792E-05  1.45299538881E-05
  1.47783231716E-05  1.50309379814E-05  1.52878708888E-05  1.55491957057E-05
  1.58149875056E-05  1.60853226454E-05  1.63602787872E-05  1.66399349204E-05
  1.69243713849E-05  1.72136698939E-05  1.75079135571E-05  1.78071869051E-05
  1.81115759133E-05  1.84211680267E-05  1.87360521853E-05  1.90563188491E-05
  1.93820600246E-05  1.97133692909E-05  2.00503418266E-05  2.03930744376E-05
  2.07416655843E-05  2.10962154101E-05  2.14568257704E-05  2.18236002615E-05
  2.21966442506E-05  2.25760649062E-05  2.29619712283E-05  2.33544740804E-05
  2.37536862210E-05  2.41597223360E-05  2.45726990717E-05  2.49927350683E-05
  2.54199509941E-05  2.58544695799E-05  2.62964156545E-05  2.67459161805E-05
  2.72031002906E-05  2.76680993251E-05  2.81410468691E-05  2.86220787913E-05
  2.91113332829E-05  2.96089508972E-05  3.01150745901E-05  3.06298497612E-05
  3.11534242954E-05  3.16859486056E-05  3.22275756757E-05  3.27784611046E-05
  3.33387631512E-05  3.39086427792E-05  3.44882637041E-05  3.50777924399E-05
  3.56773983466E-05  3.62872536795E-05  3.69075336381E-05  3.75384164170E-05
  3.81800832565E-05  3.88327184952E-05  3.94965096224E-05  4.01716473325E-05
  4.08583255796E-05  4.15567416329E-05  4.22670961340E-05  4.29895931539E-05
  4.37244402520E-05  4.44718485356E-05  4.52320327208E-05  4.60052111938E-05
  4.67916060736E-05  4.75914432765E-05  4.84049525800E-05  4.92323676898E-05
  5.00739263061E-05  5.09298701924E-05  5.18004452449E-05  5.26859015630E-05
  5.35864935210E-05  5.45024798417E-05  5.54341236702E-05  5.63816926498E-05
  5.73454589986E-05  5.83256995880E-05  5.93226960224E-05  6.03367347193E-05
  6.13681069926E-05  6.24171091354E-05  6.34840425060E-05  6.45692136134E-05
  6.56729342065E-05  6.67955213627E-05  6.79372975796E-05  6.90985908675E-05
  7.02797348435E-05  7.14810688273E-05  7.27029379389E-05  7.39456931978E-05
  7.52096916234E-05  7.64952963380E-05  7.78028766711E-05  7.91328082650E-05
  8.04854731835E-05  8.18612600209E-05  8.32605640143E-05  8.46837871566E-05
  8.61313383122E-05  8.76036333345E-05  8.91010951856E-05  9.06241540571E-05
  9.21732474944E-05  9.37488205221E-05  9.53513257718E-05  9.69812236122E-05
  9.86389822816E-05  1.00325078022E-04  1.02039995216E-04  1.03784226525E-04
  1.05558273035E-04  1.07362644394E-04  1.09197858963E-04  1.11064443964E-04
  1.12962935631E-04  1.14893879363E-04  1.16857829883E-04  1.18855351396E-04
  1.20887017752E-04  1.22953412609E-04  1.25055129602E-04  1.27192772514E-04
  1.29366955449E-04  1.31578303006E-04  1.33827450463E-04  1.36115043957E-04
  1.38441740670E-04  1.40808209015E-04  1.43215128835E-04  1.45663191589E-04
  1.48153100560E-04  1.50685571049E-04  1.53261330588E-04  1.55881119140E-04
  1.58545689322E-04  1.61255806613E-04  1.64012249576E-04  1.66815810085E-04
  1.69667293548E-04  1.72567519141E-04  1.75517320043E-04  1.78517543675E-04
  1.81569051943E-04  1.84672721485E-04  1.87829443927E-04  1.91040126134E-04
  1.94305690472E-04  1.97627075075E-04  2.01005234112E-04  2.04441138064E-04
  2.07935773998E-04  2.11490145857E-04  2.15105274742E-04  2.18782199210E-04
  2.22521975570E-04  2.26325678187E-04  2.30194399793E-04  2.34129251795E-04
  2.38131364600E-04  2.42201887939E-04  2.46341991193E-04  2.50552863734E-04
  2.54835715265E-04  2.59191776165E-04  2.63622297847E-04  2.68128553114E-04
  2.72711836525E-04  2.77373464770E-04  2.82114777044E-04  2.86937135435E-04
  2.91841925312E-04  2.96830555726E-04  3.01904459816E-04  3.07065095214E-04
  3.12313944473E-04  3.17652515484E-04  3.23082341916E-04  3.28604983653E-04
  3.34222027243E-04  3.39935086354E-04  3.45745802237E-04  3.51655844199E-04
  3.57666910080E-04  3.63780726743E-04  3.69999050569E-04  3.76323667963E-04
  3.82756395864E-04  3.89299082272E-04  3.95953606772E-04  4.02721881082E-04
  4.09605849594E-04  4.16607489942E-04  4.23728813559E-04  4.30971866265E-04
  4.38338728849E-04  4.45831517667E-04  4.53452385253E-04  4.61203520935E-04
  4.69087151463E-04  4.77105541653E-04  4.85260995033E-04  4.93555854506E-04
  5.01992503026E-04  5.10573364277E-04  5.19300903377E-04  5.28177627576E-04
  5.37206086988E-04  5.46388875313E-04  5.55728630589E-04  5.65228035946E-04
  5.74889820381E-04  5.84716759536E-04  5.94711676502E-04  6.04877442624E-04
  6.15216978330E-04  6.25733253970E-04  6.36429290665E-04  6.47308161179E-04
  6.58372990802E-04  6.69626958246E-04  6.81073296557E-04  6.92715294046E-04
  7.04556295235E-04  7.16599701814E-04  7.28848973620E-04  7.41307629632E-04
  7.53979248982E-04  7.66867471980E-04  7.79976001163E-04  7.93308602357E-04
  8.06869105762E-04  8.20661407048E-04  8.34689468475E-04  8.48957320035E-04
  8.63469060605E-04  8.78228859126E-04  8.93240955805E-04  9.08509663325E-04
  9.24039368092E-04  9.39834531487E-04  9.55899691157E-04  9.72239462311E-04
  9.88858539049E-04  1.00576169571E-03  1.02295378824E-03  1.04043975560E-03
  1.05822462117E-03  1.07631349420E-03  1.09471157127E-03  1.11342413778E-03
  1.13245656951E-03  1.15181433409E-03  1.17150299265E-03  1.19152820134E-03
  1.21189571303E-03  1.23261137891E-03  1.25368115018E-03  1.27511107979E-03
  1.29690732413E-03  1.31907614486E-03  1.34162391063E-03  1.36455709900E-03
  1.38788229821E-03  1.41160620915E-03  1.43573564724E-03  1.46027754440E-03
  1.48523895104E-03  1.51062703808E-03  1.53644909905E-03  1.56271255211E-03
  1.58942494224E-03  1.61659394341E-03  1.64422736073E-03  1.67233313275E-03
  1.70091933373E-03  1.72999417591E-03  1.75956601195E-03  1.78964333725E-03
  1.82023479245E-03  1.85134916588E-03  1.88299539610E-03  1.91518257446E-03
  1.94791994772E-03  1.98121692068E-03  2.01508305893E-03  2.04952809154E-03
  2.08456191392E-03  2.12019459059E-03  2.15643635815E-03  2.19329762814E-03
  2.23078899010E-03  2.26892121456E-03  2.30770525619E-03  2.34715225688E-03
  2.38727354899E-03  2.42808065860E-03  2.46958530880E-03  2.51179942306E-03
  2.55473512870E-03  2.59840476030E-03  2.64282086331E-03  2.68799619761E-03
  2.73394374121E-03  2.78067669393E-03  2.82820848127E-03  2.87655275817E-03
  2.92572341301E-03  2.97573457158E-03  3.02660060110E-03  3.07833611441E-03
  3.13095597412E-03  3.18447529690E-03  3.23890945780E-03  3.29427409471E-03
  3.35058511283E-03  3.40785868921E-03  3.46611127745E-03  3.52535961239E-03
  3.58562071492E-03  3.64691189690E-03  3.70925076610E-03  3.77265523126E-03
  3.83714350727E-03  3.90273412036E-03  3.96944591344E-03  4.03729805152E-03
  4.10631002720E-03  4.17650166629E-03  4.24789313350E-03  4.32050493820E-03
  4.39435794036E-03  4.46947335653E-03  4.54587276590E-03  4.62357811655E-03
  4.70261173172E-03  4.78299631625E-03  4.86475496306E-03  4.94791115984E-03
  5.03248879574E-03  5.11851216829E-03  5.20600599035E-03  5.29499539718E-03
  5.38550595373E-03  5.47756366192E-03  5.57119496816E-03  5.66642677090E-03
  5.76328642841E-03  5.86180176658E-03  5.96200108697E-03  6.06391317490E-03
  6.16756730775E-03  6.27299326334E-03  6.38022132850E-03  6.48928230779E-03
  6.60020753231E-03  6.71302886873E-03  6.82777872845E-03  6.94449007687E-03
  7.06319644291E-03  7.18393192861E-03  7.30673121894E-03  7.43162959175E-03
  7.55866292794E-03  7.68786772172E-03  7.81928109113E-03  7.95294078869E-03
  8.08888521224E-03  8.22715341598E-03  8.36778512170E-03  8.51082073016E-03
  8.65630133273E-03  8.80426872316E-03  8.95476540963E-03  9.10783462691E-03
  9.26352034884E-03  9.42186730091E-03  9.58292097313E-03  9.74672763312E-03
  9.91333433934E-03  1.00827889547E-02  1.02551401602E-02  1.04304374690E-02
  1.06087312407E-02  1.07900726956E-02  1.09745139295E-02  1.11621079290E-02
  1.13529085860E-02  1.15469707140E-02  1.17443500633E-02  1.19451033370E-02
  1.21492882078E-02  1.23569633340E-02  1.25681883767E-02  1.27830240166E-02
  1.30015319720E-02  1.32237750160E-02  1.34498169946E-02  1.36797228454E-02
  1.39135586158E-02  1.41513914824E-02  1.43932897699E-02  1.46393229711E-02
  1.48895617664E-02  1.51440780447E-02  1.54029449236E-02  1.56662367706E-02
  1.59340292241E-02  1.62063992160E-02  1.64834249927E-02  1.67651861385E-02
  1.70517635978E-02  1.73432396988E-02  1.76396981770E-02  1.79412241991E-02
  1.82479043878E-02  1.85598268463E-02  1.88770811839E-02  1.91997585416E-02
  1.95279516184E-02  1.98617546979E-02  2.02012636751E-02  2.05465760845E-02
  2.08977911275E-02  2.12550097016E-02  2.16183344287E-02  2.19878696849E-02
  2.23637216306E-02  2.27459982408E-02  2.31348093361E-02  2.35302666144E-02