<UPF version="2.0.1">
  <PP_INFO>
    Generated using FHI98PP, converted with fhi2upf.x v.5.0.2
    Origin: Abinit web site
    Date: 08-Sep-2012 (PG)
    Pseudopotential type: SL
    Element:  H
    Functional: PBE

    Suggested minimum cutoff for wavefunctions:   0. Ry
    Suggested minimum cutoff for charge density:   0. Ry
    The Pseudo was generated with a Scalar-Relativistic Calculation
    L component and cutoff radius for Local Potential:  2   0.0000

    Valence configuration: 
    nl pn  l   occ       Rcut    Rcut US       E pseu
    1s  1  0  1.00      0.000      0.000     0.000000
    2p  2  1  0.00      0.000      0.000     0.000000
    3d  3  2  0.00      0.000      0.000     0.000000
    4f  4  3  0.00      0.000      0.000     0.000000

    Generation configuration: not available.
    Comment:
    hydrogen, fhi98PP : Trouiller-Martins-type, GGA Perdew/Burke/Ernzerhof (1996), l
  </PP_INFO>
  <!--                               -->
  <!-- END OF HUMAN READABLE SECTION -->
  <!--                               -->
  <PP_HEADER generated="Generated using FHI98PP, converted with fhi2upf.x v.5.0.2"
             author="unknown"
             date="unknown"
             comment="hydrogen, fhi98PP : Trouiller-Martins-type, GGA Perdew/Burke/Ernzerhof (1996), l"
             element=" H"
             pseudo_type="SL"
             relativistic="scalar"
             is_ultrasoft="F"
             is_paw="F"
             is_coulomb="F"
             has_so="F"
             has_wfc="F"
             has_gipaw="F"
             paw_as_gipaw="F"
             core_correction="F"
             functional="PBE"
             z_valence="1.000000000000000E+000"
             total_psenergy="0.000000000000000E+000"
             wfc_cutoff="0.000000000000000E+000"
             rho_cutoff="0.000000000000000E+000"
             l_max="3"
             l_max_rho="0"
             l_local="2"
             mesh_size="387"
             number_of_wfc="4"
             number_of_proj="3"/>
  <PP_MESH dx="2.439988682353512E-002" mesh="387" xmin="-5.075173815233827E+000" rmax="7.695204984955400E+001"
zmesh="1.000000000000000E+000">
    <PP_R type="real" size="387" columns="4">
 6.250000000000000E-003  6.404375000000000E-003  6.562563062500000E-003  6.724658370143800E-003 
 6.890757431886300E-003  7.060959140453900E-003  7.235364831223100E-003  7.414078342554300E-003 
 7.597206077615400E-003  7.784857067732500E-003  7.977143037305500E-003  8.174178470326900E-003 
 8.376080678544000E-003  8.582969871304099E-003  8.794969227125299E-003  9.012204967035300E-003 
 9.234806429721000E-003  9.462906148535099E-003  9.696639930404000E-003  9.936146936684900E-003 
 1.018156976602100E-002  1.043305453924200E-002  1.069075098636100E-002  1.095481253572400E-002 
 1.122539640535700E-002  1.150266369656900E-002  1.178677948987400E-002  1.207791294327400E-002 
 1.237623739297300E-002  1.268193045657900E-002  1.299517413885700E-002  1.331615494008700E-002 
 1.364506396710700E-002  1.398209704709400E-002  1.432745484415700E-002  1.468134297880800E-002 
 1.504397215038500E-002  1.541555826249900E-002  1.579632255158300E-002  1.618649171860700E-002 
 1.658629806405700E-002  1.699597962623900E-002  1.741578032300700E-002  1.784595009698500E-002 
 1.828674506438100E-002  1.873842766747100E-002  1.920126683085700E-002  1.967553812158000E-002 
 2.016152391318300E-002  2.065951355383800E-002  2.116980353861800E-002  2.169269768602200E-002 
 2.222850731886700E-002  2.277755144964300E-002  2.334015697044900E-002  2.391665884761900E-002 
 2.450740032115500E-002  2.511273310908800E-002  2.573301761688200E-002  2.636862315201900E-002 
 2.701992814387400E-002  2.768732036902800E-002  2.837119718214300E-002  2.907196575254200E-002 
 2.979004330662900E-002  3.052585737630300E-002  3.127984605349800E-002  3.205245825101900E-002 
 3.284415396981900E-002  3.365540457287400E-002  3.448669306582400E-002  3.533851438455000E-002 
 3.621137568984800E-002  3.710579666938700E-002  3.802230984712100E-002  3.896146090034500E-002 
 3.992380898458400E-002  4.090992706650300E-002  4.192040226504500E-002  4.295583620099200E-002 
 4.401684535515700E-002  4.510406143542900E-002  4.621813175288400E-002  4.735971960718000E-002 
 4.852950468147800E-002  4.972818344711000E-002  5.095646957825400E-002  5.221509437683700E-002 
 5.350480720794400E-002  5.482637594598100E-002  5.618058743184600E-002  5.756824794141300E-002 
 5.899018366556600E-002  6.044724120210500E-002  6.194028805979700E-002  6.347021317487400E-002 
 6.503792744029400E-002  6.664436424806899E-002  6.829048004499599E-002  6.997725490210800E-002 
 7.170569309819000E-002  7.347682371771500E-002  7.529170126354300E-002  7.715140628475201E-002 
 7.905704601998600E-002  8.100975505667900E-002  8.301069600657900E-002  8.506106019794200E-002 
 8.716206838483100E-002  8.931497147393599E-002  9.152105126934200E-002  9.378162123569500E-002 
 9.609802728021700E-002  9.847164855403800E-002  1.009038982733200E-001  1.033962245606700E-001 
 1.059501113073200E-001  1.085670790566100E-001  1.112486859093100E-001  1.139965284512700E-001 
 1.168122427040200E-001  1.196975050988100E-001  1.226540334747500E-001  1.256835881015700E-001 
 1.287879727276800E-001  1.319690356540600E-001  1.352286708347100E-001  1.385688190043300E-001 
 1.419914688337400E-001  1.454986581139300E-001  1.490924749693400E-001  1.527750591010900E-001 
 1.565486030608800E-001  1.604153535564900E-001  1.643776127893300E-001  1.684377398252300E-001 
 1.725981519989100E-001  1.768613263532900E-001  1.812298011142100E-001  1.857061772017300E-001 
 1.902931197786100E-001  1.949933598371500E-001  1.998096958251200E-001  2.047449953120000E-001 
 2.098021966962100E-001  2.149843109546100E-001  2.202944234351900E-001  2.257356956940400E-001 
 2.313113673776800E-001  2.370247581519100E-001  2.428792696782600E-001  2.488783876393100E-001 
 2.550256838140000E-001  2.613248182042100E-001  2.677795412138500E-001  2.743936958818300E-001 
 2.811712201701200E-001  2.881161493083200E-001  2.952326181962300E-001  3.025248638656800E-001 
 3.099972280031600E-001  3.176541595348400E-001  3.255002172753500E-001  3.335400726420500E-001 
 3.417785124363100E-001  3.502204416934900E-001  3.588708866033200E-001  3.677349975024200E-001 
 3.768180519407300E-001  3.861254578236700E-001  3.956627566319100E-001  4.054356267207200E-001 
 4.154498867007200E-001  4.257114989022300E-001  4.362265729251100E-001  4.470013692763600E-001 
 4.580423030974900E-001  4.693559479840000E-001  4.809490398992000E-001  4.928284811847100E-001 
 5.050013446699700E-001  5.174748778833200E-001  5.302565073670400E-001  5.433538430990100E-001 
 5.567746830235500E-001  5.705270176942300E-001  5.846190350312800E-001  5.990591251965500E-001 
 6.138558855889100E-001  6.290181259629500E-001  6.445548736742400E-001  6.604753790539900E-001 
 6.767891209166300E-001  6.935058122032700E-001  7.106354057646900E-001  7.281881002870800E-001 
 7.461743463641700E-001  7.646048527193600E-001  7.834905925815300E-001  8.028428102182900E-001 
 8.226730276306800E-001  8.429930514131601E-001  8.638149797830700E-001  8.851512097837100E-001 
 9.070144446653700E-001  9.294177014486000E-001  9.523743186743800E-001  9.758979643456400E-001 
 1.000002644065000E+000  1.024702709373400E+000  1.050012866294900E+000  1.075948184092400E+000 
 1.102524104239500E+000  1.129756449614200E+000  1.157661433919700E+000  1.186255671337500E+000 
 1.215556186419500E+000  1.245580424224100E+000  1.276346260702400E+000  1.307872013341700E+000 
 1.340176452071300E+000  1.373278810437500E+000  1.407198797055300E+000  1.441956607342500E+000 
 1.477572935543900E+000  1.514068987051800E+000  1.551466491032000E+000  1.589787713360500E+000 
 1.629055469880500E+000  1.669293139986500E+000  1.710524680544200E+000  1.752774640153600E+000 
 1.796068173765400E+000  1.840431057657400E+000  1.885889704781600E+000  1.932471180489700E+000 
 1.980203218647800E+000  2.029114238148400E+000  2.079233359830700E+000  2.130590423818500E+000 
 2.183216007286800E+000  2.237141442666800E+000  2.292398836300600E+000  2.349021087557300E+000 
 2.407041908419900E+000  2.466495843557900E+000  2.527418290893800E+000  2.589845522678900E+000 
 2.653814707089000E+000  2.719363930354100E+000  2.786532219433900E+000  2.855359565253900E+000 
 2.925886946515700E+000  2.998156354094600E+000  3.072210816040700E+000  3.148094423196900E+000 
 3.225852355449900E+000  3.305530908629500E+000  3.387177522072700E+000  3.470840806867900E+000 
 3.556570574797500E+000  3.644417867995000E+000  3.734434989334500E+000  3.826675533571000E+000 
 3.921194419250200E+000  4.018047921405700E+000  4.117293705064400E+000  4.218990859579500E+000 
 4.323199933811100E+000  4.429982972176300E+000  4.539403551589000E+000  4.651526819313300E+000 
 4.766419531750300E+000  4.884150094184500E+000  5.004788601510900E+000  5.128406879968200E+000 
 5.255078529903400E+000  5.384878969592100E+000  5.517885480141000E+000  5.654177251500500E+000 
 5.793835429612500E+000  5.936943164723900E+000  6.083585660892600E+000  6.233850226716700E+000 
 6.387826327316600E+000  6.545605637601300E+000  6.707282096850000E+000  6.872951964642200E+000 
 7.042713878168900E+000  7.216668910959700E+000  7.394920633060400E+000  7.577575172697000E+000 
 7.764741279462600E+000  7.956530389065300E+000  8.153056689675200E+000  8.354437189910200E+000 
 8.560791788501000E+000  8.772243345676999E+000  8.988917756315200E+000  9.210944024896200E+000 
 9.438454342311100E+000  9.671584164566200E+000  9.910472293431001E+000  1.015526095907900E+001 
 1.040609590476800E+001  1.066312647361600E+001  1.092650569751400E+001  1.119639038824300E+001 
 1.147294123083200E+001  1.175632287923400E+001  1.204670405435100E+001  1.234425764449300E+001 
 1.264916080831200E+001  1.296159508027800E+001  1.328174647876000E+001  1.360980561678600E+001 
 1.394596781552000E+001  1.429043322056400E+001  1.464340692111200E+001  1.500509907206300E+001 
 1.537572501914300E+001  1.575550542711600E+001  1.614466641116600E+001  1.654343967152200E+001 
 1.695206263140800E+001  1.737077857840400E+001  1.779983680929000E+001  1.823949277848000E+001 
 1.869000825010800E+001  1.915165145388600E+001  1.962469724479700E+001  2.010942726674400E+001 
 2.060613012023200E+001  2.111510153420200E+001  2.163664454209700E+001  2.217106966228600E+001 
 2.271869508294500E+001  2.327984685149400E+001  2.385485906872600E+001  2.444407408772300E+001 
 2.504784271769000E+001  2.566652443281700E+001  2.630048758630700E+001  2.695010962968900E+001 
 2.761577733754200E+001  2.829788703778000E+001  2.899684484761300E+001  2.971306691534900E+001 
 3.044697966815800E+001  3.119902006596200E+001  3.196963586159100E+001  3.275928586737200E+001 
 3.356844022829600E+001  3.439758070193500E+001  3.524720094527300E+001  3.611780680862100E+001 
 3.700991663679400E+001  3.792406157772300E+001  3.886078589869300E+001  3.982064731039000E+001 
 4.080421729895700E+001  4.181208146624100E+001  4.284483987845700E+001  4.390310742345500E+001 
 4.498751417681500E+001  4.609870577698200E+001  4.723734380967300E+001  4.840410620177200E+001 
 4.959968762495600E+001  5.082479990929200E+001  5.208017246705200E+001  5.336655272698800E+001 
 5.468470657934500E+001  5.603541883185500E+001  5.741949367700100E+001  5.883775517082300E+001 
 6.029104772354300E+001  6.178023660231400E+001  6.330620844639100E+001  6.486987179501700E+001 
 6.647215762835400E+001  6.811401992177400E+001  6.979643621384200E+001  7.152040818832400E+001 
 7.328696227057600E+001  7.509715023865900E+001  7.695204984955400E+001
    </PP_R>
    <PP_RAB type="real" size="387" columns="4">
 1.524992926470945E-004  1.562660251754778E-004  1.601257959973120E-004  1.640809031584469E-004 
 1.681337014664592E-004  1.722866038926810E-004  1.765420830088299E-004  1.809026724591478E-004 
 1.853709684688889E-004  1.899496313900705E-004  1.946413872854054E-004  1.994490295513538E-004 
 2.043754205812728E-004  2.094234934696318E-004  2.145962537583315E-004  2.198967812261624E-004 
 2.253282317224468E-004  2.308938390459911E-004  2.365969168704291E-004  2.424408607171267E-004 
 2.484291499768394E-004  2.545653499812742E-004  2.608531141258049E-004  2.672961860447094E-004 
 2.738984018400288E-004  2.806636923654698E-004  2.875960855668906E-004  2.946997088803956E-004 
 3.019787916897446E-004  3.094376678444707E-004  3.170807782402413E-004  3.249126734627809E-004 
 3.329380164973079E-004  3.411615855047782E-004  3.495882766667408E-004  3.582231071004172E-004 
 3.670712178458083E-004  3.761378769265873E-004  3.854284824866807E-004  3.949485660040993E-004 
 4.047037955844104E-004  4.146999793353403E-004  4.249430688249207E-004  4.354391626248896E-004 
 4.461945099417359E-004  4.572155143372916E-004  4.685087375414097E-004  4.800809033587028E-004 
 4.919389016716621E-004  5.040897925429371E-004  5.165408104187525E-004  5.292993684360990E-004 
 5.423730628364769E-004  5.557696774885375E-004  5.694971885225000E-004  5.835637690790035E-004 
 5.979777941752503E-004  6.127478456913905E-004  6.278827174799563E-004  6.433914206017115E-004 
 6.592831886905770E-004  6.755674834512419E-004  6.922540002924877E-004  7.093526740997138E-004 
 7.268736851499576E-004  7.448274651731680E-004  7.632247035629529E-004  7.820763537409481E-004 
 8.013936396783453E-004  8.211880625784119E-004  8.414714077240989E-004  8.622557514948878E-004 
 8.835534685568023E-004  9.053772392301492E-004  9.277400570391374E-004  9.506552364480069E-004 
 9.741364207882843E-004  9.981975903817495E-004  1.022853070864163E-003  1.048117541714518E-003 
 1.074006044994878E-003  1.100533994306243E-003  1.127717183965605E-003  1.155571798409549E-003 
 1.184114421830281E-003  1.213362048049476E-003  1.243332090636308E-003  1.274042393275028E-003 
 1.305511240388900E-003  1.337757368026525E-003  1.370799975016762E-003  1.404658734399686E-003 
 1.439353805139361E-003  1.474905844126291E-003  1.511336018476211E-003  1.548666018132573E-003 
 1.586918068780463E-003  1.626114945079334E-003  1.666279984222786E-003  1.707437099833104E-003 
 1.749610796198979E-003  1.792826182865087E-003  1.837108989581865E-003  1.882485581624525E-003 
 1.928982975490666E-003  1.976628854985269E-003  2.025451587703407E-003  2.075480241919693E-003 
 2.126744603895105E-003  2.179275195611306E-003  2.233103292942900E-003  2.288260944278596E-003 
 2.344780989602285E-003  2.402697080045453E-003  2.462043697922509E-003  2.522856177261171E-003 
 2.585170724839557E-003  2.649024441743074E-003  2.714455345454170E-003  2.781502392486889E-003 
 2.850205501581404E-003  2.920605577470482E-003  2.992744535233988E-003  3.066665325254113E-003 
 3.142411958787920E-003  3.220029534170135E-003  3.299564263664009E-003  3.381063500976575E-003 
 3.464575769450771E-003  3.550150790956122E-003  3.637839515492639E-003  3.727694151525485E-003 
 3.819768197067996E-003  3.914116471535728E-003  4.010795148382531E-003  4.109861788547667E-003 
 4.211375374724716E-003  4.315396346480586E-003  4.421986636238503E-003  4.531209706153570E-003 
 4.643130585895497E-003  4.757815911367319E-003  4.875333964377906E-003  4.995754713298029E-003 
 5.119149854716578E-003  5.245592856128165E-003  5.375158999674559E-003  5.507925426966541E-003 
 5.643971185012545E-003  5.783377273282387E-003  5.926226691932410E-003  6.072604491223066E-003 
 6.222597822156252E-003  6.376295988363615E-003  6.533790499276099E-003  6.695175124608167E-003 
 6.860545950186203E-003  7.030001435155755E-003  7.203642470603967E-003  7.381572439627962E-003 
 7.563897278886716E-003  7.750725541675265E-003  7.942168462554631E-003  8.138340023579703E-003 
 8.339357022162156E-003  8.545339140609636E-003  8.756409017382715E-003  8.972692320112019E-003 
 9.194317820418791E-003  9.421417470583232E-003  9.654126482106524E-003  9.892583406214600E-003 
 1.013693021634806E-002  1.038731239269191E-002  1.064387900879128E-002  1.090678282030841E-002 
 1.117618035597013E-002  1.145223201076264E-002  1.173510214142836E-002  1.202495916432163E-002 
 1.232197565568032E-002  1.262632845437567E-002  1.293819876719879E-002  1.325777227674870E-002 
 1.358523925198426E-002  1.392079466150823E-002  1.426463828964755E-002  1.461697485540178E-002 
 1.497801413433033E-002  1.534797108344814E-002  1.572706596920943E-002  1.611552449864882E-002 
 1.651357795376560E-002  1.692146332922359E-002  1.733942347345539E-002  1.776770723324980E-002 
 1.820656960191104E-002  1.865627187107812E-002  1.911708178629380E-002  1.958927370641516E-002 
 2.007312876696357E-002  2.056893504750763E-002  2.107698774318119E-002  2.159758934043772E-002 
 2.213104979714658E-002  2.267768672713600E-002  2.323782558929624E-002  2.381179988135193E-002 
 2.439995133842188E-002  2.500263013648076E-002  2.562019510085127E-002  2.625301391984269E-002 
 2.690146336366324E-002  2.756592950874534E-002  2.824680796761206E-002  2.894450412441168E-002 
 2.965943337628376E-002  3.039202138067890E-002  3.114270430878081E-002  3.191192910520649E-002 
 3.270015375410656E-002  3.350784755183394E-002  3.433549138636409E-002  3.518357802360567E-002 
 3.605261240078971E-002  3.694311192708839E-002  3.785560679168797E-002  3.879064027944289E-002 
 3.974876909434503E-002  4.073056369097417E-002  4.173660861414205E-002  4.276750284691034E-002 
 4.382386016722917E-002  4.490630951335960E-002  4.601549535834110E-002  4.715207809369199E-002 
 4.831673442260629E-002  4.951015776284465E-002  5.073305865958775E-002  5.198616520847913E-002 
 5.327022348912815E-002  5.458599800931000E-002  5.593427216013825E-002  5.731584868249551E-002 
 5.873155014495155E-002  6.018221943353255E-002  6.166872025354129E-002  6.319193764380432E-002 
 6.475277850360460E-002  6.635217213264369E-002  6.799107078432130E-002  6.967045023269361E-002 
 7.139131035344183E-002  7.315467571917093E-002  7.496159620943356E-002  7.681314763580645E-002 
 7.871043238241175E-002  8.065458006225702E-002  8.264674818979602E-002  8.468812287008408E-002 
 8.677991950497425E-002  8.892338351674717E-002  9.111979108961138E-002  9.337044992952327E-002 
 9.567670004278241E-002  9.803991453383963E-002  1.004615004228250E-001  1.029428994832690E-001 
 1.054855891005054E-001  1.080910831512895E-001  1.107609329051250E-001  1.134967279478828E-001 
 1.163000971281946E-001  1.191727095272602E-001  1.221162754525846E-001  1.251325474562629E-001 
 1.282233213784323E-001  1.313904374164817E-001  1.346357812206682E-001  1.379612850168191E-001 
 1.413689287567330E-001  1.448607412970236E-001  1.484388016070605E-001  1.521052400067562E-001 
 1.558622394349231E-001  1.597120367489652E-001  1.636569240566633E-001  1.676992500808631E-001 
 1.718414215578613E-001  1.760859046703411E-001  1.804352265156984E-001  1.848919766106364E-001 
 1.894588084329187E-001  1.941384410012112E-001  1.989336604939408E-001  2.038473219081417E-001 
 2.088823507592732E-001  2.140417448230279E-001  2.193285759201561E-001  2.247459917453843E-001 
 2.302972177414945E-001  2.359855590197097E-001  2.418144023274970E-001  2.477872180649923E-001 
 2.539075623511915E-001  2.601790791412715E-001  2.666055023960532E-001  2.731906583052456E-001 
 2.799384675653705E-001  2.868529477142461E-001  2.939382155227861E-001  3.011984894461874E-001 
 3.086380921355089E-001  3.162614530112728E-001  3.240731109006301E-001  3.320777167398910E-001 
 3.402800363433513E-001  3.486849532410481E-001  3.572974715861037E-001  3.661227191342691E-001 
 3.751659502968865E-001  3.844325492692238E-001  3.939280332361793E-001  4.036580556571178E-001 
 4.136284096318342E-001  4.238450313497459E-001  4.343140036240705E-001  4.450415595135981E-001 
 4.560340860335729E-001  4.672981279586103E-001  4.788403917191884E-001  4.906677493946648E-001 
 5.027872428046989E-001  5.152060877019816E-001  5.279316780682256E-001  5.409715905164915E-001 
 5.543335888022619E-001  5.680256284456840E-001  5.820558614682948E-001  5.964326412465487E-001 
 6.111645274853443E-001  6.262602913142338E-001  6.417289205096812E-001  6.575796248462756E-001 
 6.738218415799708E-001  6.904652410670136E-001  7.075197325213647E-001  7.249954699146414E-001 
 7.429028580215301E-001  7.612525586146740E-001  7.800554968124501E-001  7.993228675837104E-001 
 8.190661424130258E-001  8.392970761306298E-001  8.600277139110614E-001  8.812703984446586E-001 
 9.030377772862432E-001  9.253428103852180E-001  9.481987778017389E-001  9.716192876134242E-001 
 9.956182840174848E-001  1.020210055632711E+000  1.045409244006835E+000  1.071230852333807E+000 
 1.097690254386468E+000  1.124803203669805E+000  1.152585842800439E+000  1.181054713117611E+000 
 1.210226764531622E+000  1.240119365615543E+000  1.270750313946259E+000  1.302137846700727E+000 
 1.334300651514244E+000  1.367257877606651E+000  1.401029147183515E+000  1.435634567118950E+000 
 1.471094740926804E+000  1.507430781027683E+000  1.544664321319063E+000  1.582817530055648E+000 
 1.621913123048024E+000  1.661974377187302E+000  1.703025144303833E+000  1.745089865368140E+000 
 1.788193585042743E+000  1.832361966593293E+000  1.877621307168150E+000
    </PP_RAB>
  </PP_MESH>
  <PP_LOCAL type="real" size="387" columns="4">
-1.392104073850040E+001 -1.392103797452500E+001 -1.392103500352000E+001 -1.392103181238940E+001 
-1.392102838699740E+001 -1.392102471208060E+001 -1.392102077115040E+001 -1.392101654638680E+001 
-1.392101201852240E+001 -1.392100716671540E+001 -1.392100196841120E+001 -1.392099639918960E+001 
-1.392099043259860E+001 -1.392098403997220E+001 -1.392097719023020E+001 -1.392096984966020E+001 
-1.392096198167680E+001 -1.392095354655920E+001 -1.392094450116300E+001 -1.392093479860380E+001 
-1.392092438791100E+001 -1.392091321364760E+001 -1.392090121549200E+001 -1.392088832778180E+001 
-1.392087447901000E+001 -1.392085959127460E+001 -1.392084357967220E+001 -1.392082635163440E+001 
-1.392080780619760E+001 -1.392078783320120E+001 -1.392076631240860E+001 -1.392074311253920E+001 
-1.392071809020780E+001 -1.392069108875700E+001 -1.392066193697720E+001 -1.392063044769740E+001 
-1.392059641623960E+001 -1.392055961871840E+001 -1.392051981017420E+001 -1.392047672252060E+001 
-1.392043006229040E+001 -1.392037950815720E+001 -1.392032470821300E+001 -1.392026527697640E+001 
-1.392020079210500E+001 -1.392013079078260E+001 -1.392005476574980E+001 -1.391997216094240E+001 
-1.391988236669900E+001 -1.391978471449680E+001 -1.391967847116580E+001 -1.391956283253620E+001 
-1.391943691645740E+001 -1.391929975513280E+001 -1.391915028669940E+001 -1.391898734598240E+001 
-1.391880965434340E+001 -1.391861580853460E+001 -1.391840426846420E+001 -1.391817334376740E+001 
-1.391792117907140E+001 -1.391764573782580E+001 -1.391734478456640E+001 -1.391701586546100E+001 
-1.391665628697980E+001 -1.391626309250760E+001 -1.391583303671420E+001 -1.391536255746840E+001 
-1.391484774507220E+001 -1.391428430856860E+001 -1.391366753885760E+001 -1.391299226832720E+001 
-1.391225282669260E+001 -1.391144299270020E+001 -1.391055594133320E+001 -1.390958418612500E+001 
-1.390851951615400E+001 -1.390735292726640E+001 -1.390607454703480E+001 -1.390467355292800E+001 
-1.390313808313260E+001 -1.390145513942720E+001 -1.389961048147080E+001 -1.389758851183480E+001 
-1.389537215105760E+001 -1.389294270197460E+001 -1.389027970253200E+001 -1.388736076625580E+001 
-1.388416140952140E+001 -1.388065486473560E+001 -1.387681187851800E+001 -1.387260049396060E+001 
-1.386798581602700E+001 -1.386292975916680E+001 -1.385739077623200E+001 -1.385132356782220E+001 
-1.384467877124340E+001 -1.383740262834240E+001 -1.382943663159720E+001 -1.382071714798900E+001 
-1.381117502037400E+001 -1.380073514631100E+001 -1.378931603460140E+001 -1.377682934016280E+001 
-1.376317937829960E+001 -1.374826261996480E+001 -1.373196717024160E+001 -1.371417223302200E+001 
-1.369474756573640E+001 -1.367355292901900E+001 -1.365043753738000E+001 -1.362523951833060E+001 
-1.359778538898280E+001 -1.356788956093840E+001 -1.353535388631600E+001 -1.349996726006040E+001 
-1.346150529623000E+001 -1.341973009881860E+001 -1.337439015078980E+001 -1.332522034843920E+001 
-1.327194221190020E+001 -1.321426430657400E+001 -1.315188291443860E+001 -1.308448299852820E+001 
-1.301173950826500E+001 -1.293331907765740E+001 -1.284888217248780E+001 -1.275808574625980E+001 
-1.266058646759940E+001 -1.255604458363160E+001 -1.244412848413320E+001 -1.232452002944500E+001 
-1.219692070052260E+001 -1.206105862130120E+001 -1.191669649075680E+001 -1.176364044352260E+001 
-1.160174983231520E+001 -1.143094789121180E+001 -1.125123319428860E+001 -1.106269176739080E+001 
-1.086550963988680E+001 -1.065998553613740E+001 -1.044654330122080E+001 -1.022574353066680E+001 
-9.998293728741800E+000 -9.765056154578000E+000 -9.527052332453000E+000 -9.285463007054201E+000 
-9.041622126253399E+000 -8.797003248789400E+000 -8.553196627447599E+000 -8.311875147854600E+000 
-8.074747364772399E+000 -7.843496152464400E+000 -7.619702087761800E+000 -7.404751774267800E+000 
-7.199733115882600E+000 -7.005322362507000E+000 -6.821671995596800E+000 -6.648314757637200E+000 
-6.484108112335800E+000 -6.327256161408000E+000 -6.175463886528000E+000 -6.026303324684200E+000 
-5.877905306385000E+000 -5.730136856539600E+000 -5.585205022195800E+000 -5.443803639880400E+000 
-5.305875125209400E+000 -5.171364932521400E+000 -5.040221359163400E+000 -4.912395312874600E+000 
-4.787840039458800E+000 -4.666510808474200E+000 -4.548364555381000E+000 -4.433359479515800E+000 
-4.321454598425800E+000 -4.212609260508200E+000 -4.106782619572200E+000 -4.003933076871200E+000 
-3.904017698336000E+000 -3.806991617104800E+000 -3.712807433960800E+000 -3.621414630797200E+000 
-3.532759014600200E+000 -3.446782211439000E+000 -3.363421231307800E+000 -3.282608125051800E+000 
-3.204269753709200E+000 -3.128327688036000E+000 -3.054698251543600E+000 -2.983292713906600E+000 
-2.914017633223800E+000 -2.846775335794200E+000 -2.781464511631800E+000 -2.717980894296400E+000 
-2.656217986622800E+000 -2.596067792005600E+000 -2.537421516811400E+000 -2.480170226099800E+000 
-2.424205464631800E+000 -2.369419899442400E+000 -2.315708098042200E+000 -2.262967622811000E+000 
-2.211100686899200E+000 -2.160016662270600E+000 -2.109635730427800E+000 -2.059893887521200E+000 
-2.010749320609200E+000 -1.962189826426080E+000 -1.914240427267660E+000 -1.866969658096840E+000 
-1.820492211985280E+000 -1.774964873037460E+000 -1.730572175988860E+000 -1.687498327135120E+000 
-1.645882822831380E+000 -1.605758622106420E+000 -1.566972452079140E+000 -1.529201618811160E+000 
-1.492340801025820E+000 -1.456368499098100E+000 -1.421263295694440E+000 -1.387004289737920E+000 
-1.353571083964000E+000 -1.320943772776440E+000 -1.289102930395660E+000 -1.258029599293120E+000 
-1.227705278904180E+000 -1.198111914613240E+000 -1.169231887004220E+000 -1.141048001370380E+000 
-1.113543477476700E+000 -1.086701939569340E+000 -1.060507406625680E+000 -1.034944282839540E+000 
-1.009997348335640E+000 -9.856517501079800E-001 -9.618929931765400E-001 -9.387069319572000E-001 
-9.160797618397600E-001 -8.939980109688200E-001 -8.724485322229200E-001 -8.514184953868600E-001 
-8.308953795129000E-001 -8.108669654658800E-001 -7.913213286482800E-001 -7.722468319003400E-001 
-7.536321185716200E-001 -7.354661057593600E-001 -7.177379777099200E-001 -7.004371793792400E-001 
-6.835534101485800E-001 -6.670766176916000E-001 -6.509969919894600E-001 -6.353049594900400E-001 
-6.199911774080600E-001 -6.050465281624600E-001 -5.904621139479400E-001 -5.762292514374400E-001 
-5.623394666121200E-001 -5.487844897161400E-001 -5.355562503329200E-001 -5.226468725801801E-001 
-5.100486704208000E-001 -4.977541430865600E-001 -4.857559706124400E-001 -4.740470094783200E-001 
-4.626202883559400E-001 -4.514690039581600E-001 -4.405865169885400E-001 -4.299663481883000E-001 
-4.196021744786800E-001 -4.094878251963200E-001 -3.996172784193600E-001 -3.899846573820200E-001 
-3.805842269757200E-001 -3.714103903344600E-001 -3.624576855025400E-001 -3.537207821826400E-001 
-3.451944785621600E-001 -3.368736982162000E-001 -3.287534870852000E-001 -3.208290105252400E-001 
-3.130955504296200E-001 -3.055485024198400E-001 -2.981833731041800E-001 -2.909957774023400E-001 
-2.839814359347400E-001 -2.771361724746200E-001 -2.704559114615200E-001 -2.639366755748200E-001 
-2.575745833657000E-001 -2.513658469461200E-001 -2.453067697337000E-001 -2.393937442507200E-001 
-2.336232499763000E-001 -2.279918512504200E-001 -2.224961952282800E-001 -2.171330098841400E-001 
-2.118991020631800E-001 -2.067913555803400E-001 -2.018067293650200E-001 -1.969422556504560E-001 
-1.921950382067500E-001 -1.875622506165220E-001 -1.830411345920960E-001 -1.786289983332660E-001 
-1.743232149246260E-001 -1.701212207715700E-001 -1.660205140739420E-001 -1.620186533365300E-001 
-1.581132559154200E-001 -1.543019965994140E-001 -1.505826062256400E-001 -1.469528703285260E-001 
-1.434106278213380E-001 -1.399537697095140E-001 -1.365802378349900E-001 -1.332880236508140E-001 
-1.300751670252900E-001 -1.269397550749380E-001 -1.238799210256060E-001 -1.208938431010120E-001 
-1.179797434380900E-001 -1.151358870284860E-001 -1.123605806855540E-001 -1.096521720362580E-001 
-1.070090485373840E-001 -1.044296365154520E-001 -1.019124002297780E-001 -9.945584095811200E-002 
-9.705849610433399E-002 -9.471893832764200E-002 -9.243577469273200E-002 -9.020764584047200E-002 
-8.803322517856201E-002 -8.591121809169600E-002 -8.384036117077800E-002 -8.181942146070000E-002 
-7.984719572626001E-002 -7.792250973578600E-002 -7.604421756200599E-002 -7.421120089978001E-002 
-7.242236840029399E-002 -7.067665502126801E-002 -6.897302139286400E-002 -6.731045319885200E-002 
-6.568796057270600E-002 -6.410457750825201E-002 -6.255936128452599E-002 -6.105139190448400E-002 
-5.957977154726600E-002 -5.814362403363600E-002 -5.674209430432000E-002 -5.537434791092000E-002 
-5.403957051909800E-002 -5.273696742373200E-002 -5.146576307576000E-002 -5.022520062043600E-002 
-4.901454144670200E-002 -4.783306474744000E-002 -4.668006709031000E-002 -4.555486199893600E-002 